HEADER
"PSFversion" "1.00"
"Time Stamp" "Feb 18 12:18:18 2024"
TYPE
"variable" STRUCT(
"value" FLOAT DOUBLE
) PROP( "key" "element" )
VALUE
"temp" "variable" ( 27 ) PROP( )
END
