HEADER
"PSFversion" "1.00"
"D0n D1n" "PRIMLIB_dnw3_spectre"
