HEADER
"PSFversion" "1.00"
"GNDIv" ".GNDIv"
"GNDOIv" ".GNDOIv"
"GNDRIv" ".GNDRIv"
"PADv" ".PADv"
"PSUBv" ".PSUBv"
"VDD3Iv" ".VDD3Iv"
"VDDOIv" ".VDDOIv"
"VDDRIv" ".VDDRIv"
