HEADER
"PSFversion" "1.00"
"Time Stamp" "Feb  5 02:00:01 2024"
TYPE
"variable" STRUCT(
"value" FLOAT DOUBLE
) PROP( "key" "element" )
VALUE
"VGS" "variable" ( 1 ) PROP( )
"VDS" "variable" ( 1 ) PROP( )
"temp" "variable" ( 27 ) PROP( )
END
