HEADER
"PSFversion" "1.00"
"I0n" "BIAS_NMOS_L"
