HEADER
"PSFversion" "1.00"
"Cv" "(FUNCTION or(mappedRoot(\".1@index\") mappedRoot(\".C\")))v"
"Cv" ".Cv"
"Cv" ".\\1 v"
"Dv" "(FUNCTION or(mappedRoot(\".2@index\") mappedRoot(\".D\")))v"
"Dv" ".Dv"
"Dv" ".\\2 v"
"Qv" "(FUNCTION or(mappedRoot(\".3@index\") mappedRoot(\".Q\")))v"
"Qv" ".Qv"
"Qv" ".\\3 v"
"i0n" "VLG_PRIMITIVES_u1_fd5_functional"
