HEADER
"PSFversion" "1.00"
"design" "(\"CHARACTERIZATION\" \"GMID_NMOS_L\" \"schematic\" \"\")"
"simulator" "spectre"
"temperature" "27"
"host" ""
"date" "Feb 17 05:55:35 2024"
"title" ""
"analysisList" "()"
END
