HEADER
"PSFversion" "1.00"
"Time Stamp" "Feb 17 05:55:35 2024"
TYPE
"variable" STRUCT(
"value" FLOAT DOUBLE
) PROP( "key" "element" )
VALUE
"WF1" "variable" ( 10e-6 ) PROP( )
"VDS1" "variable" ( 500e-3 ) PROP( )
"NF1" "variable" ( 40 ) PROP( )
"L1" "variable" ( 350e-9 ) PROP( )
"IDS1" "variable" ( 800e-6 ) PROP( )
"temp" "variable" ( 27 ) PROP( )
END
