HEADER
"PSFversion" "1.00"
"Cv" "(FUNCTION or(mappedRoot(\".2@index\") mappedRoot(\".C\")))v"
"Cv" ".Cv"
"Cv" ".\\2 v"
"gnd3iv" ".gnd3iv"
"Qv" "(FUNCTION or(mappedRoot(\".1@index\") mappedRoot(\".Q\")))v"
"Qv" ".Qv"
"Qv" ".\\1 v"
"Dv" "(FUNCTION or(mappedRoot(\".3@index\") mappedRoot(\".D\")))v"
"Dv" ".Dv"
"Dv" ".\\3 v"
"vdd3iv" ".vdd3iv"
"M15n M17n M18n M19n M46n M47n M49n M50n M51n M61n" "PRIMLIB_ne3i_spectre"
"M23n M24n M28n M30n M33n M34n M35n M36n M56n M59n" "PRIMLIB_pe3i_spectre"
"invr_1n invr_2n invr_3n" "GATES_JI3V_invrji3v_schematic"
