HEADER
"PSFversion" "1.00"
"VDDRv" "(FUNCTION or(mappedRoot(\".4@index\") mappedRoot(\".VDDR\")))v"
"VDDRv" ".VDDRv"
"VDDRv" ".\\4 v"
"GNDRv" "(FUNCTION or(mappedRoot(\".3@index\") mappedRoot(\".GNDR\")))v"
"GNDRv" ".GNDRv"
"GNDRv" ".\\3 v"
"Av" "(FUNCTION or(mappedRoot(\".2@index\") mappedRoot(\".A\")))v"
"Av" ".Av"
"Av" ".\\2 v"
"Yv" "(FUNCTION or(mappedRoot(\".1@index\") mappedRoot(\".Y\")))v"
"Yv" ".Yv"
"Yv" ".\\1 v"
"M1n" "PRIMLIB_pe3i_spectre"
"M2n" "PRIMLIB_ne3i_spectre"
