HEADER
"PSFversion" "1.00"
"NG1v" "(FUNCTION or(mappedRoot(\".1@index\") mappedRoot(\".NG1\")))v"
"NG1v" ".NG1v"
"NG1v" ".\\1 v"
"GNDOv" "(FUNCTION or(mappedRoot(\".5@index\") mappedRoot(\".GNDO\")))v"
"GNDOv" ".GNDOv"
"GNDOv" ".\\5 v"
"NWv" "(FUNCTION or(mappedRoot(\".7@index\") mappedRoot(\".NW\")))v"
"NWv" ".NWv"
"NWv" ".\\7 v"
"VDDOv" "(FUNCTION or(mappedRoot(\".10@index\") mappedRoot(\".VDDO\")))v"
"VDDOv" ".VDDOv"
"VDDOv" ".\\10 v"
"NG2v" "(FUNCTION or(mappedRoot(\".2@index\") mappedRoot(\".NG2\")))v"
"NG2v" ".NG2v"
"NG2v" ".\\2 v"
"PG2v" "(FUNCTION or(mappedRoot(\".4@index\") mappedRoot(\".PG2\")))v"
"PG2v" ".PG2v"
"PG2v" ".\\4 v"
"PG1v" "(FUNCTION or(mappedRoot(\".3@index\") mappedRoot(\".PG1\")))v"
"PG1v" ".PG1v"
"PG1v" ".\\3 v"
"PGv" "(FUNCTION or(mappedRoot(\".8@index\") mappedRoot(\".PG\")))v"
"PGv" ".PGv"
"PGv" ".\\8 v"
"PWv" "(FUNCTION or(mappedRoot(\".9@index\") mappedRoot(\".PW\")))v"
"PWv" ".PWv"
"PWv" ".\\9 v"
"NGv" "(FUNCTION or(mappedRoot(\".6@index\") mappedRoot(\".NG\")))v"
"NGv" ".NGv"
"NGv" ".\\6 v"
