HEADER
"PSFversion" "1.00"
"Time Stamp" "Feb 18 12:39:01 2024"
TYPE
"variable" STRUCT(
"value" FLOAT DOUBLE
) PROP( "key" "element" )
VALUE
"WF" "variable" ( 100e-6 ) PROP( )
"NF" "variable" ( 1 ) PROP( )
"VDS" "variable" ( 1 ) PROP( )
"VGS" "variable" ( 0 ) PROP( )
"temp" "variable" ( 27 ) PROP( )
END
