HEADER
"PSFversion" "1.00"
"Log Generator" "drlLog rev. 1.0"
"Log Time Stamp" "Fri Feb  9 05:27:48 2024"
"psfversion" "1.4.0"
"simulator" "spectre"
"version" "23.1.0.305.isr3"
"date" "5:27:48 AM, Fri Feb 9, 2024"
"design" "//"
"signalNameType" "spectre"
"simMode" "APS"
"measdgt" 0
"ingold" 2
"sst2usecolon" 0
TYPE
"analysisInst" STRUCT(
"analysisType" STRING *
"dataFile" STRING *
"format" STRING *
"parent" STRING *
"sweepVariable" ARRAY ( * ) STRING *
"description" STRING *
)
VALUE
"tran-tran" "analysisInst" (
"tran"
"psf.trn"
"SST2"
""
("time")
"Transient Analysis `tran': time = (0 s -> 1 us)"
) PROP(
"data_type" "swept_scalar"
)

"finalTimeOP-info" "analysisInst" (
"info"
"finalTimeOP.info"
"PSF"
""
()
"Circuit Information"
) PROP(
"data_type" "struct"
)

"modelParameter-info" "analysisInst" (
"info"
"modelParameter.info"
"PSF"
""
()
"Circuit Information"
) PROP(
"data_type" "struct"
)

"element-info" "analysisInst" (
"info"
"element.info"
"PSF"
""
()
"Circuit Information"
) PROP(
"data_type" "struct"
)

"outputParameter-info" "analysisInst" (
"info"
"outputParameter.info"
"PSF"
""
()
"Circuit Information"
) PROP(
"data_type" "struct"
)

END
