HEADER
"PSFversion" "1.00"
"VDv" "(FUNCTION or(mappedRoot(\".3@index\") mappedRoot(\".VD\")))v"
"VDv" ".VDv"
"VDv" ".\\3 v"
"VSv" "(FUNCTION or(mappedRoot(\".4@index\") mappedRoot(\".VS\")))v"
"VSv" ".VSv"
"VSv" ".\\4 v"
"INv" "(FUNCTION or(mappedRoot(\".1@index\") mappedRoot(\".IN\")))v"
"INv" ".INv"
"INv" ".\\1 v"
"OUTv" "(FUNCTION or(mappedRoot(\".2@index\") mappedRoot(\".OUT\")))v"
"OUTv" ".OUTv"
"OUTv" ".\\2 v"
