HEADER
"PSFversion" "1.00"
"design" "(\"CHARACTERIZATION\" \"FT\" \"schematic\" \"\")"
"simulator" "spectre"
"temperature" "27"
"host" ""
"date" "Feb 17 09:51:27 2024"
"title" ""
"analysisList" "()"
END
