HEADER
"PSFversion" "1.00"
"Cv" "(FUNCTION or(mappedRoot(\".2@index\") mappedRoot(\".C\")))v"
"Cv" ".Cv"
"Cv" ".\\2 v"
"gnd3iv" ".gnd3iv"
"Qv" "(FUNCTION or(mappedRoot(\".1@index\") mappedRoot(\".Q\")))v"
"Qv" ".Qv"
"Qv" ".\\1 v"
"Dv" "(FUNCTION or(mappedRoot(\".3@index\") mappedRoot(\".D\")))v"
"Dv" ".Dv"
"Dv" ".\\3 v"
"vdd3iv" ".vdd3iv"
