HEADER
"PSFversion" "1.00"
"Run Generator" "drlRun rev. 1.0"
"Run Time Stamp" "Feb  5 02:02:09 2024"
"date" "Feb  5 02:02:09 2024"
"simulator" "spectre"
"netlistDir" "../netlist"
"axlParamFlag" "true"
 "externalSweepVariableCount" 1
TYPE
"runObject" STRUCT(
"logName" ARRAY( * ) STRING *
"parent" STRING *
"sweepVariable" ARRAY( * ) STRING *
) PROP( "key" "runObject" )
VALUE
"Root" "runObject" (
("")
""
("VGS")
)
"VGS=0.0" "runObject" (
(
"../../../1/INV_HV:nedia_dc:1/psf/logFile"
"../../../1/INV_HV:nedia_dc:1/psf/artistLogFile"
)
"Root"
()
) PROP(
"#maeCorner" "nom"
 "#pointID" 1
"netlistDir" "../../../1/INV_HV:nedia_dc:1/netlist"
"dataDir" "../../../1/INV_HV:nedia_dc:1"
 "VGS" 0.000000e+00
)

"VGS=1.0" "runObject" (
(
"../../../2/INV_HV:nedia_dc:1/psf/logFile"
"../../../2/INV_HV:nedia_dc:1/psf/artistLogFile"
)
"Root"
()
) PROP(
"#maeCorner" "nom"
 "#pointID" 2
"netlistDir" "../../../2/INV_HV:nedia_dc:1/netlist"
"dataDir" "../../../2/INV_HV:nedia_dc:1"
 "VGS" 1.000000e+00
)

"VGS=2.0" "runObject" (
(
"../../../3/INV_HV:nedia_dc:1/psf/logFile"
"../../../3/INV_HV:nedia_dc:1/psf/artistLogFile"
)
"Root"
()
) PROP(
"#maeCorner" "nom"
 "#pointID" 3
"netlistDir" "../../../3/INV_HV:nedia_dc:1/netlist"
"dataDir" "../../../3/INV_HV:nedia_dc:1"
 "VGS" 2.000000e+00
)

"VGS=3.0" "runObject" (
(
"../../../4/INV_HV:nedia_dc:1/psf/logFile"
"../../../4/INV_HV:nedia_dc:1/psf/artistLogFile"
)
"Root"
()
) PROP(
"#maeCorner" "nom"
 "#pointID" 4
"netlistDir" "../../../4/INV_HV:nedia_dc:1/netlist"
"dataDir" "../../../4/INV_HV:nedia_dc:1"
 "VGS" 3.000000e+00
)

"VGS=4.0" "runObject" (
(
"../../../5/INV_HV:nedia_dc:1/psf/logFile"
"../../../5/INV_HV:nedia_dc:1/psf/artistLogFile"
)
"Root"
()
) PROP(
"#maeCorner" "nom"
 "#pointID" 5
"netlistDir" "../../../5/INV_HV:nedia_dc:1/netlist"
"dataDir" "../../../5/INV_HV:nedia_dc:1"
 "VGS" 4.000000e+00
)

"VGS=5.0" "runObject" (
(
"../../../6/INV_HV:nedia_dc:1/psf/logFile"
"../../../6/INV_HV:nedia_dc:1/psf/artistLogFile"
)
"Root"
()
) PROP(
"#maeCorner" "nom"
 "#pointID" 6
"netlistDir" "../../../6/INV_HV:nedia_dc:1/netlist"
"dataDir" "../../../6/INV_HV:nedia_dc:1"
 "VGS" 5.000000e+00
)

"VGS=6.0" "runObject" (
(
"../../../7/INV_HV:nedia_dc:1/psf/logFile"
"../../../7/INV_HV:nedia_dc:1/psf/artistLogFile"
)
"Root"
()
) PROP(
"#maeCorner" "nom"
 "#pointID" 7
"netlistDir" "../../../7/INV_HV:nedia_dc:1/netlist"
"dataDir" "../../../7/INV_HV:nedia_dc:1"
 "VGS" 6.000000e+00
)

"VGS=7.0" "runObject" (
(
"../../../8/INV_HV:nedia_dc:1/psf/logFile"
"../../../8/INV_HV:nedia_dc:1/psf/artistLogFile"
)
"Root"
()
) PROP(
"#maeCorner" "nom"
 "#pointID" 8
"netlistDir" "../../../8/INV_HV:nedia_dc:1/netlist"
"dataDir" "../../../8/INV_HV:nedia_dc:1"
 "VGS" 7.000000e+00
)

"VGS=8.0" "runObject" (
(
"../../../9/INV_HV:nedia_dc:1/psf/logFile"
"../../../9/INV_HV:nedia_dc:1/psf/artistLogFile"
)
"Root"
()
) PROP(
"#maeCorner" "nom"
 "#pointID" 9
"netlistDir" "../../../9/INV_HV:nedia_dc:1/netlist"
"dataDir" "../../../9/INV_HV:nedia_dc:1"
 "VGS" 8.000000e+00
)

"VGS=9.0" "runObject" (
(
"../../../10/INV_HV:nedia_dc:1/psf/logFile"
"../../../10/INV_HV:nedia_dc:1/psf/artistLogFile"
)
"Root"
()
) PROP(
"#maeCorner" "nom"
 "#pointID" 10
"netlistDir" "../../../10/INV_HV:nedia_dc:1/netlist"
"dataDir" "../../../10/INV_HV:nedia_dc:1"
 "VGS" 9.000000e+00
)

"VGS=10.0" "runObject" (
(
"../../../11/INV_HV:nedia_dc:1/psf/logFile"
"../../../11/INV_HV:nedia_dc:1/psf/artistLogFile"
)
"Root"
()
) PROP(
"#maeCorner" "nom"
 "#pointID" 11
"netlistDir" "../../../11/INV_HV:nedia_dc:1/netlist"
"dataDir" "../../../11/INV_HV:nedia_dc:1"
 "VGS" 1.000000e+01
)

"VGS=11.0" "runObject" (
(
"../../../12/INV_HV:nedia_dc:1/psf/logFile"
"../../../12/INV_HV:nedia_dc:1/psf/artistLogFile"
)
"Root"
()
) PROP(
"#maeCorner" "nom"
 "#pointID" 12
"netlistDir" "../../../12/INV_HV:nedia_dc:1/netlist"
"dataDir" "../../../12/INV_HV:nedia_dc:1"
 "VGS" 1.100000e+01
)

"VGS=12.0" "runObject" (
(
"../../../13/INV_HV:nedia_dc:1/psf/logFile"
"../../../13/INV_HV:nedia_dc:1/psf/artistLogFile"
)
"Root"
()
) PROP(
"#maeCorner" "nom"
 "#pointID" 13
"netlistDir" "../../../13/INV_HV:nedia_dc:1/netlist"
"dataDir" "../../../13/INV_HV:nedia_dc:1"
 "VGS" 1.200000e+01
)

"VGS=13.0" "runObject" (
(
"../../../14/INV_HV:nedia_dc:1/psf/logFile"
"../../../14/INV_HV:nedia_dc:1/psf/artistLogFile"
)
"Root"
()
) PROP(
"#maeCorner" "nom"
 "#pointID" 14
"netlistDir" "../../../14/INV_HV:nedia_dc:1/netlist"
"dataDir" "../../../14/INV_HV:nedia_dc:1"
 "VGS" 1.300000e+01
)

"VGS=14.0" "runObject" (
(
"../../../15/INV_HV:nedia_dc:1/psf/logFile"
"../../../15/INV_HV:nedia_dc:1/psf/artistLogFile"
)
"Root"
()
) PROP(
"#maeCorner" "nom"
 "#pointID" 15
"netlistDir" "../../../15/INV_HV:nedia_dc:1/netlist"
"dataDir" "../../../15/INV_HV:nedia_dc:1"
 "VGS" 1.400000e+01
)

"VGS=15.0" "runObject" (
(
"../../../16/INV_HV:nedia_dc:1/psf/logFile"
"../../../16/INV_HV:nedia_dc:1/psf/artistLogFile"
)
"Root"
()
) PROP(
"#maeCorner" "nom"
 "#pointID" 16
"netlistDir" "../../../16/INV_HV:nedia_dc:1/netlist"
"dataDir" "../../../16/INV_HV:nedia_dc:1"
 "VGS" 1.500000e+01
)

"VGS=16.0" "runObject" (
(
"../../../17/INV_HV:nedia_dc:1/psf/logFile"
"../../../17/INV_HV:nedia_dc:1/psf/artistLogFile"
)
"Root"
()
) PROP(
"#maeCorner" "nom"
 "#pointID" 17
"netlistDir" "../../../17/INV_HV:nedia_dc:1/netlist"
"dataDir" "../../../17/INV_HV:nedia_dc:1"
 "VGS" 1.600000e+01
)

"VGS=17.0" "runObject" (
(
"../../../18/INV_HV:nedia_dc:1/psf/logFile"
"../../../18/INV_HV:nedia_dc:1/psf/artistLogFile"
)
"Root"
()
) PROP(
"#maeCorner" "nom"
 "#pointID" 18
"netlistDir" "../../../18/INV_HV:nedia_dc:1/netlist"
"dataDir" "../../../18/INV_HV:nedia_dc:1"
 "VGS" 1.700000e+01
)

"VGS=18.0" "runObject" (
(
"../../../19/INV_HV:nedia_dc:1/psf/logFile"
"../../../19/INV_HV:nedia_dc:1/psf/artistLogFile"
)
"Root"
()
) PROP(
"#maeCorner" "nom"
 "#pointID" 19
"netlistDir" "../../../19/INV_HV:nedia_dc:1/netlist"
"dataDir" "../../../19/INV_HV:nedia_dc:1"
 "VGS" 1.800000e+01
)

END
