HEADER
"PSFversion" "1.00"
"Kv" "(FUNCTION or(mappedRoot(\".4@index\") mappedRoot(\".K\")))v"
"Kv" ".Kv"
"Kv" ".\\4 v"
"Av" "(FUNCTION or(mappedRoot(\".1@index\") mappedRoot(\".A\")))v"
"Av" ".Av"
"Av" ".\\1 v"
"Gnv" "(FUNCTION or(mappedRoot(\".2@index\") mappedRoot(\".Gn\")))v"
"Gnv" ".Gnv"
"Gnv" ".\\2 v"
"Subv" "(FUNCTION or(mappedRoot(\".5@index\") mappedRoot(\".Sub\")))v"
"Subv" ".Subv"
"Subv" ".\\5 v"
"Gpv" "(FUNCTION or(mappedRoot(\".3@index\") mappedRoot(\".Gp\")))v"
"Gpv" ".Gpv"
"Gpv" ".\\3 v"
"D0n" "PRIMLIB_dpdnw_spectre"
"D1n" "PRIMLIB_dnpdd_scr_spectre"
"D2n" "PRIMLIB_dpdd_scr_spectre"
"D_Guardn" "PRIMLIB_ddnw_spectre"
