HEADER
"PSFversion" "1.00"
"Time Stamp" "Feb 18 12:23:03 2024"
TYPE
"variable" STRUCT(
"value" FLOAT DOUBLE
) PROP( "key" "element" )
VALUE
"L" "variable" ( 180e-9 ) PROP( )
"NF" "variable" ( 1 ) PROP( )
"VDS" "variable" ( 1 ) PROP( )
"VGS" "variable" ( 150e-3 ) PROP( )
"WF" "variable" ( 10e-6 ) PROP( )
"temperature" "variable" ( 27 ) PROP( )
"temp" "variable" ( 27 ) PROP( )
END
