HEADER
"PSFversion" "1.00"
"Cv" ".Cv"
"Dv" ".Dv"
"Qv" ".Qv"
