HEADER
"PSFversion" "1.00"
"Time Stamp" "Feb 17 09:47:14 2024"
TYPE
"variable" STRUCT(
"value" FLOAT DOUBLE
) PROP( "key" "element" )
VALUE
"IDS" "variable" ( 1e-6 ) PROP( )
"L" "variable" ( 1e-6 ) PROP( )
"NF" "variable" ( 10 ) PROP( )
"VDS" "variable" ( 500e-3 ) PROP( )
"WF" "variable" ( 10e-6 ) PROP( )
"temp" "variable" ( 27 ) PROP( )
END
