HEADER
"PSFversion" "1.00"
"M0n" "PRIMLIB_ne3i_spectre"
"M1n" "PRIMLIB_pe3i_spectre"
