HEADER
"PSFversion" "1.00"
"VDD3Iv" "(FUNCTION or(mappedRoot(\".5@index\") mappedRoot(\".VDD3I\")))v"
"VDD3Iv" ".VDD3Iv"
"VDD3Iv" ".\\5 v"
"GNDOIv" "(FUNCTION or(mappedRoot(\".2@index\") mappedRoot(\".GNDOI\")))v"
"GNDOIv" ".GNDOIv"
"GNDOIv" ".\\2 v"
"GNDIv" "(FUNCTION or(mappedRoot(\".1@index\") mappedRoot(\".GNDI\")))v"
"GNDIv" ".GNDIv"
"GNDIv" ".\\1 v"
"VDDRIv" "(FUNCTION or(mappedRoot(\".7@index\") mappedRoot(\".VDDRI\")))v"
"VDDRIv" ".VDDRIv"
"VDDRIv" ".\\7 v"
"PSUBv" "(FUNCTION or(mappedRoot(\".4@index\") mappedRoot(\".PSUB\")))v"
"PSUBv" ".PSUBv"
"PSUBv" ".\\4 v"
"GNDRIv" "(FUNCTION or(mappedRoot(\".3@index\") mappedRoot(\".GNDRI\")))v"
"GNDRIv" ".GNDRIv"
"GNDRIv" ".\\3 v"
"VDDOIv" "(FUNCTION or(mappedRoot(\".6@index\") mappedRoot(\".VDDOI\")))v"
"VDDOIv" ".VDDOIv"
"VDDOIv" ".\\6 v"
"IN<10>v" "IN_10v"
"IN<11>v" "IN_11v"
"IN<12>v" "IN_12v"
"IN<13>v" "IN_13v"
"IN<14>v" "IN_14v"
"IN<15>v" "IN_15v"
"IN<16>v" "IN_16v"
"IN<17>v" "IN_17v"
"IN<18>v" "IN_18v"
"IN<19>v" "IN_19v"
"IN<1>v" "IN_1v"
"IN<20>v" "IN_20v"
"IN<21>v" "IN_21v"
"IN<22>v" "IN_22v"
"IN<23>v" "IN_23v"
"IN<24>v" "IN_24v"
"IN<2>v" "IN_2v"
"IN<3>v" "IN_3v"
"IN<4>v" "IN_4v"
"IN<5>v" "IN_5v"
"IN<6>v" "IN_6v"
"IN<7>v" "IN_7v"
"IN<8>v" "IN_8v"
"IN<9>v" "IN_9v"
"IP<10>v" "IP_10v"
"IP<11>v" "IP_11v"
"IP<12>v" "IP_12v"
"IP<13>v" "IP_13v"
"IP<14>v" "IP_14v"
"IP<15>v" "IP_15v"
"IP<16>v" "IP_16v"
"IP<17>v" "IP_17v"
"IP<18>v" "IP_18v"
"IP<19>v" "IP_19v"
"IP<1>v" "IP_1v"
"IP<20>v" "IP_20v"
"IP<21>v" "IP_21v"
"IP<22>v" "IP_22v"
"IP<23>v" "IP_23v"
"IP<24>v" "IP_24v"
"IP<25>v" "IP_25v"
"IP<26>v" "IP_26v"
"IP<27>v" "IP_27v"
"IP<28>v" "IP_28v"
"IP<29>v" "IP_29v"
"IP<2>v" "IP_2v"
"IP<30>v" "IP_30v"
"IP<31>v" "IP_31v"
"IP<32>v" "IP_32v"
"IP<3>v" "IP_3v"
"IP<4>v" "IP_4v"
"IP<5>v" "IP_5v"
"IP<6>v" "IP_6v"
"IP<7>v" "IP_7v"
"IP<8>v" "IP_8v"
"IP<9>v" "IP_9v"
"R0n R11n" "PRIMLIB_rdp3_spectre"
"I157n" "IO_CELLS_JIC3V_jio_andio_pc_cmos_sch"
"IN<10>n IN<11>n IN<12>n IN<13>n IN<14>n IN<15>n IN<16>n IN<17>n IN<18>n IN<19>n IN<1>n IN<20>n IN<21>n IN<22>n IN<23>n IN<24>n IN<2>n IN<3>n IN<4>n IN<5>n IN<6>n IN<7>n IN<8>n IN<9>n" "IO_CELLS_JIC3V_jio_ne3i_pc_cmos_sch"
"IP<10>n IP<11>n IP<12>n IP<13>n IP<14>n IP<15>n IP<16>n IP<17>n IP<18>n IP<19>n IP<1>n IP<20>n IP<21>n IP<22>n IP<23>n IP<24>n IP<25>n IP<26>n IP<27>n IP<28>n IP<29>n IP<2>n IP<30>n IP<31>n IP<32>n IP<3>n IP<4>n IP<5>n IP<6>n IP<7>n IP<8>n IP<9>n" "IO_CELLS_JIC3V_jio_pe3i_pc_cmos_sch"
