HEADER
"PSFversion" "1.00"
"gnd!v" "cds_globals.\\gnd! v"
"gnd3i!v" "cds_globals.\\gnd3i! v"
"vdd3i!v" "cds_globals.\\vdd3i! v"
