HEADER
"PSFversion" "1.00"
"PWIRv" "(FUNCTION or(mappedRoot(\".3@index\") mappedRoot(\".PWIR\")))v"
"PWIRv" ".PWIRv"
"PWIRv" ".\\3 v"
"DNWRv" "(FUNCTION or(mappedRoot(\".1@index\") mappedRoot(\".DNWR\")))v"
"DNWRv" ".DNWRv"
"DNWRv" ".\\1 v"
"PSUBv" "(FUNCTION or(mappedRoot(\".2@index\") mappedRoot(\".PSUB\")))v"
"PSUBv" ".PSUBv"
"PSUBv" ".\\2 v"
