HEADER
"PSFversion" "1.00"
"gnd3iv" ".gnd3iv"
"vdd3iv" ".vdd3iv"
