HEADER
"PSFversion" "1.00"
"Run Generator" "drlRun rev. 1.0"
"Run Time Stamp" "Feb 12 01:23:48 2024"
"simulator" "ams"
"solver" "Spectre"
"date" "Feb 12 01:23:48 2024"
 "externalSweepVariableCount" 0
"#maeTestName" "TOP:top_tb:1:1"
"#maeHistoryName" "Interactive.19"
"#maeCorner" "nom"
 "#maeDesignPoint" 1
"netlistDir" "../netlist"
TYPE
"runObject" STRUCT(
"logName" ARRAY( * ) STRING *
"parent" STRING *
"sweepVariable" ARRAY( * ) STRING *
) PROP( "key" "runObject" )
VALUE
"Run1" "runObject" (
(
"logFile"
"artistLogFile"
)
""
()
)
END
