HEADER
"PSFversion" "1.00"
"GNDOI2v" "(FUNCTION or(mappedRoot(\".4@index\") mappedRoot(\".GNDOI2\")))v"
"GNDOI2v" ".GNDOI2v"
"GNDOI2v" ".\\4 v"
"GNDOI1v" "(FUNCTION or(mappedRoot(\".3@index\") mappedRoot(\".GNDOI1\")))v"
"GNDOI1v" ".GNDOI1v"
"GNDOI1v" ".\\3 v"
"PSUBv" "(FUNCTION or(mappedRoot(\".7@index\") mappedRoot(\".PSUB\")))v"
"PSUBv" ".PSUBv"
"PSUBv" ".\\7 v"
"VDD3I2v" "(FUNCTION or(mappedRoot(\".9@index\") mappedRoot(\".VDD3I2\")))v"
"VDD3I2v" ".VDD3I2v"
"VDD3I2v" ".\\9 v"
"GNDI2v" "(FUNCTION or(mappedRoot(\".2@index\") mappedRoot(\".GNDI2\")))v"
"GNDI2v" ".GNDI2v"
"GNDI2v" ".\\2 v"
"GNDI1v" "(FUNCTION or(mappedRoot(\".1@index\") mappedRoot(\".GNDI1\")))v"
"GNDI1v" ".GNDI1v"
"GNDI1v" ".\\1 v"
"VDDRI1v" "(FUNCTION or(mappedRoot(\".12@index\") mappedRoot(\".VDDRI1\")))v"
"VDDRI1v" ".VDDRI1v"
"VDDRI1v" ".\\12 v"
"VDDRI2v" "(FUNCTION or(mappedRoot(\".13@index\") mappedRoot(\".VDDRI2\")))v"
"VDDRI2v" ".VDDRI2v"
"VDDRI2v" ".\\13 v"
"GNDRI2v" "(FUNCTION or(mappedRoot(\".6@index\") mappedRoot(\".GNDRI2\")))v"
"GNDRI2v" ".GNDRI2v"
"GNDRI2v" ".\\6 v"
"GNDRI1v" "(FUNCTION or(mappedRoot(\".5@index\") mappedRoot(\".GNDRI1\")))v"
"GNDRI1v" ".GNDRI1v"
"GNDRI1v" ".\\5 v"
"VDDOI2v" "(FUNCTION or(mappedRoot(\".11@index\") mappedRoot(\".VDDOI2\")))v"
"VDDOI2v" ".VDDOI2v"
"VDDOI2v" ".\\11 v"
"VDDOI1v" "(FUNCTION or(mappedRoot(\".10@index\") mappedRoot(\".VDDOI1\")))v"
"VDDOI1v" ".VDDOI1v"
"VDDOI1v" ".\\10 v"
"VDD3I1v" "(FUNCTION or(mappedRoot(\".8@index\") mappedRoot(\".VDD3I1\")))v"
"VDD3I1v" ".VDD3I1v"
"VDD3I1v" ".\\8 v"
