HEADER
"PSFversion" "1.00"
"PSUBv" "(FUNCTION or(mappedRoot(\".5@index\") mappedRoot(\".PSUB\")))v"
"PSUBv" ".PSUBv"
"PSUBv" ".\\5 v"
"DNWv" "(FUNCTION or(mappedRoot(\".2@index\") mappedRoot(\".DNW\")))v"
"DNWv" ".DNWv"
"DNWv" ".\\2 v"
"LPWIv" "(FUNCTION or(mappedRoot(\".3@index\") mappedRoot(\".LPWI\")))v"
"LPWIv" ".LPWIv"
"LPWIv" ".\\3 v"
"NWv" "(FUNCTION or(mappedRoot(\".4@index\") mappedRoot(\".NW\")))v"
"NWv" ".NWv"
"NWv" ".\\4 v"
"VDNv" "(FUNCTION or(mappedRoot(\".7@index\") mappedRoot(\".VDN\")))v"
"VDNv" ".VDNv"
"VDNv" ".\\7 v"
"DNLWv" "(FUNCTION or(mappedRoot(\".1@index\") mappedRoot(\".DNLW\")))v"
"DNLWv" ".DNLWv"
"DNLWv" ".\\1 v"
"PWIv" "(FUNCTION or(mappedRoot(\".6@index\") mappedRoot(\".PWI\")))v"
"PWIv" ".PWIv"
"PWIv" ".\\6 v"
