HEADER
"PSFversion" "1.00"
"I2n I1n I0n" "BIAS_NMOS_3"
"I5n I4n I3n" "BIAS_PMOS_3"
