HEADER
"PSFversion" "1.00"
"Av" "(FUNCTION or(mappedRoot(\".2@index\") mappedRoot(\".A\")))v"
"Av" ".Av"
"Av" ".\\2 v"
"Qv" "(FUNCTION or(mappedRoot(\".1@index\") mappedRoot(\".Q\")))v"
"Qv" ".Qv"
"Qv" ".\\1 v"
"gnd3iv" ".gnd3iv"
"vdd3iv" ".vdd3iv"
