HEADER
"PSFversion" "1.00"
"GNDOv" "(FUNCTION or(mappedRoot(\".5@index\") mappedRoot(\".GNDO\")))v"
"GNDOv" ".GNDOv"
"GNDOv" ".\\5 v"
"GNDv" "(FUNCTION or(mappedRoot(\".4@index\") mappedRoot(\".GND\")))v"
"GNDv" ".GNDv"
"GNDv" ".\\4 v"
"VDDOv" "(FUNCTION or(mappedRoot(\".8@index\") mappedRoot(\".VDDO\")))v"
"VDDOv" ".VDDOv"
"VDDOv" ".\\8 v"
"Av" "(FUNCTION or(mappedRoot(\".2@index\") mappedRoot(\".A\")))v"
"Av" ".Av"
"Av" ".\\2 v"
"ENv" "(FUNCTION or(mappedRoot(\".3@index\") mappedRoot(\".EN\")))v"
"ENv" ".ENv"
"ENv" ".\\3 v"
"VDNv" "(FUNCTION or(mappedRoot(\".9@index\") mappedRoot(\".VDN\")))v"
"VDNv" ".VDNv"
"VDNv" ".\\9 v"
"PSUBv" "(FUNCTION or(mappedRoot(\".6@index\") mappedRoot(\".PSUB\")))v"
"PSUBv" ".PSUBv"
"PSUBv" ".\\6 v"
"VDDv" "(FUNCTION or(mappedRoot(\".7@index\") mappedRoot(\".VDD\")))v"
"VDDv" ".VDDv"
"VDDv" ".\\7 v"
"PADv" "(FUNCTION or(mappedRoot(\".1@index\") mappedRoot(\".PAD\")))v"
"PADv" ".PADv"
"PADv" ".\\1 v"
