HEADER
"PSFversion" "1.00"
"bv" "(FUNCTION or(mappedRoot(\".3@index\") mappedRoot(\".b\")))v"
"bv" ".bv"
"bv" ".\\3 v"
"av" "(FUNCTION or(mappedRoot(\".2@index\") mappedRoot(\".a\")))v"
"av" ".av"
"av" ".\\2 v"
"outv" "(FUNCTION or(mappedRoot(\".1@index\") mappedRoot(\".out\")))v"
"outv" ".outv"
"outv" ".\\1 v"
"gnd3iv" ".gnd3iv"
"vdd3iv" ".vdd3iv"
"MN1n MN2n" "PRIMLIB_ne3i_spectre"
"MP1n MP2n" "PRIMLIB_pe3i_spectre"
