HEADER
"PSFversion" "1.00"
"Time Stamp" "Feb 18 10:50:55 2024"
TYPE
"variable" STRUCT(
"value" FLOAT DOUBLE
) PROP( "key" "element" )
VALUE
"VDS" "variable" ( 1 ) PROP( )
"VGS" "variable" ( 1 ) PROP( )
"temp" "variable" ( 27 ) PROP( )
END
