HEADER
"PSFversion" "1.00"
"design" "(\"INV_HV\" \"nedia_dc\" \"schematic\" \"\")"
"simulator" "spectre"
"temperature" "27"
"host" ""
"date" "Feb  5 01:59:42 2024"
"title" ""
"analysisList" "()"
END
