HEADER
"PSFversion" "1.00"
"R0n R1n R2n R3n R4n R5n R6n R7n R8n R9n" "analogLib_res_spectre"
"V0n V1n V2n V3n V4n V5n V6n V7n V8n V9n" "analogLib_vdc_spectre"
"V10n" "analogLib_vpulse_spectre"
"I0n" "TOP_top_schematic"
"I1n" "COUNTER_JI3_counter_stimulus_verilogams"
