HEADER
"PSFversion" "1.00"
"design" "(\"TOP\" \"top_tb\" \"config_functional\" \"\")"
"simulator" "ams"
"temperature" "27"
"host" ""
"date" "Feb  9 05:28:08 2024"
"title" ""
"analysisList" "()"
END
