HEADER
"PSFversion" "1.00"
"out<7>v" "(FUNCTION or(mappedRoot(\".1[7]@index\") mappedRoot(\".out[7]\")))v"
"out<7>v" ".out[7]v"
"out<7>v" "\\1 [7]v"
"out<6>v" "(FUNCTION or(mappedRoot(\".1[6]@index\") mappedRoot(\".out[6]\")))v"
"out<6>v" ".out[6]v"
"out<6>v" "\\1 [6]v"
"out<5>v" "(FUNCTION or(mappedRoot(\".1[5]@index\") mappedRoot(\".out[5]\")))v"
"out<5>v" ".out[5]v"
"out<5>v" "\\1 [5]v"
"out<4>v" "(FUNCTION or(mappedRoot(\".1[4]@index\") mappedRoot(\".out[4]\")))v"
"out<4>v" ".out[4]v"
"out<4>v" "\\1 [4]v"
"out<3>v" "(FUNCTION or(mappedRoot(\".1[3]@index\") mappedRoot(\".out[3]\")))v"
"out<3>v" ".out[3]v"
"out<3>v" "\\1 [3]v"
"out<2>v" "(FUNCTION or(mappedRoot(\".1[2]@index\") mappedRoot(\".out[2]\")))v"
"out<2>v" ".out[2]v"
"out<2>v" "\\1 [2]v"
"out<1>v" "(FUNCTION or(mappedRoot(\".1[1]@index\") mappedRoot(\".out[1]\")))v"
"out<1>v" ".out[1]v"
"out<1>v" "\\1 [1]v"
"out<0>v" "(FUNCTION or(mappedRoot(\".1[0]@index\") mappedRoot(\".out[0]\")))v"
"out<0>v" ".out[0]v"
"out<0>v" "\\1 [0]v"
"enablev" "(FUNCTION or(mappedRoot(\".2@index\") mappedRoot(\".enable\")))v"
"enablev" ".enablev"
"enablev" ".\\2 v"
"clkv" "(FUNCTION or(mappedRoot(\".3@index\") mappedRoot(\".clk\")))v"
"clkv" ".clkv"
"clkv" ".\\3 v"
"resetv" "(FUNCTION or(mappedRoot(\".4@index\") mappedRoot(\".reset\")))v"
"resetv" ".resetv"
"resetv" ".\\4 v"
"out_reg[0]v" "\\out_reg[0] v"
"out_reg[1]v" "\\out_reg[1] v"
"out_reg[2]v" "\\out_reg[2] v"
"out_reg[3]v" "\\out_reg[3] v"
"out_reg[4]v" "\\out_reg[4] v"
"out_reg[5]v" "\\out_reg[5] v"
"out_reg[6]v" "\\out_reg[6] v"
"out_reg[7]v" "\\out_reg[7] v"
"CTS_cdb_buf_00009n CTS_cdb_buf_00010n" "D_CELLS_JI3V_BUJI3VX1_symbol"
"FE_OFC0_out_0n FE_PHC10_n_38n" "D_CELLS_JI3V_BUJI3VX2_symbol"
"FE_PHC1_resetn FE_PHC2_enablen FE_PHC3_n_14n FE_PHC4_n_18n FE_PHC5_n_22n" "D_CELLS_JI3V_DLY2JI3VX1_symbol"
"FE_PHC6_n_26n FE_PHC7_n_30n" "D_CELLS_JI3V_DLY1JI3VX1_symbol"
"FE_PHC8_n_34n" "D_CELLS_JI3V_BUJI3VX16_symbol"
"FE_PHC9_n_37n" "D_CELLS_JI3V_BUJI3VX0_symbol"
"FILLCAP_T_1_1n" "D_CELLS_JI3V_DECAP25JI3V_symbol"
"FILLCAP_T_1_10n FILLCAP_T_1_12n FILLCAP_T_1_17n FILLCAP_T_1_21n FILLCAP_T_1_24n FILLCAP_T_1_30n FILLCAP_T_1_34n FILLCAP_T_1_35n FILLCAP_T_1_38n FILLCAP_T_1_6n FILLCAP_T_1_8n" "D_CELLS_JI3V_DECAP5JI3V_symbol"
"FILLCAP_T_1_11n FILLCAP_T_1_5n FILLCAP_T_1_7n" "D_CELLS_JI3V_DECAP15JI3V_symbol"
"FILLCAP_T_1_13n FILLCAP_T_1_14n FILLCAP_T_1_15n FILLCAP_T_1_16n FILLCAP_T_1_18n FILLCAP_T_1_19n FILLCAP_T_1_20n FILLCAP_T_1_22n FILLCAP_T_1_25n FILLCAP_T_1_26n FILLCAP_T_1_27n FILLCAP_T_1_28n FILLCAP_T_1_29n FILLCAP_T_1_3n FILLCAP_T_1_31n FILLCAP_T_1_32n FILLCAP_T_1_33n FILLCAP_T_1_37n" "D_CELLS_JI3V_DECAP7JI3V_symbol"
"FILLCAP_T_1_2n FILLCAP_T_1_23n FILLCAP_T_1_36n FILLCAP_T_1_4n FILLCAP_T_1_9n" "D_CELLS_JI3V_DECAP10JI3V_symbol"
"g187__2398n g219__4733n" "D_CELLS_JI3V_NO2JI3VX0_symbol"
"g189__6260n" "D_CELLS_JI3V_AN22JI3VX1_symbol"
"g190__5107n g194__8428n g199__3680n g204__1705n g209__7098n g214__5115n" "D_CELLS_JI3V_AN21JI3VX1_symbol"
"g191__5526n g220__9945n" "D_CELLS_JI3V_EN2JI3VX0_symbol"
"g193__4319n g196__6783n g201__2802n g206__8246n g211__1881n g216__6161n" "D_CELLS_JI3V_ON211JI3VX1_symbol"
"g197__1617n g202__5122n g207__6131n g212__7482n g217__9315n g221__2883n g222__2346n g223__1666n g224__5477n g225__6417n g226__7410n g227__2398n" "D_CELLS_JI3V_NA2JI3VX0_symbol"
"g198n g203n g208n g213n g218n g232n" "D_CELLS_JI3V_INJI3VX0_symbol"
"out_reg[0]n" "D_CELLS_JI3V_DFRQJI3VX1_symbol"
"out_reg[1]n" "D_CELLS_JI3V_DFRQJI3VX4_symbol"
"out_reg[2]n out_reg[3]n out_reg[4]n out_reg[5]n out_reg[6]n out_reg[7]n" "D_CELLS_JI3V_DFRQJI3VX2_symbol"
