HEADER
"PSFversion" "1.00"
"zv" ".zv"
"bv" ".bv"
"av" ".av"
