HEADER
"PSFversion" "1.00"
"out<7>v" "(FUNCTION or(mappedRoot(\".1[7]@index\") mappedRoot(\".out[7]\")))v"
"out<7>v" ".out[7]v"
"out<7>v" "\\1 [7]v"
"out<6>v" "(FUNCTION or(mappedRoot(\".1[6]@index\") mappedRoot(\".out[6]\")))v"
"out<6>v" ".out[6]v"
"out<6>v" "\\1 [6]v"
"out<5>v" "(FUNCTION or(mappedRoot(\".1[5]@index\") mappedRoot(\".out[5]\")))v"
"out<5>v" ".out[5]v"
"out<5>v" "\\1 [5]v"
"out<4>v" "(FUNCTION or(mappedRoot(\".1[4]@index\") mappedRoot(\".out[4]\")))v"
"out<4>v" ".out[4]v"
"out<4>v" "\\1 [4]v"
"out<3>v" "(FUNCTION or(mappedRoot(\".1[3]@index\") mappedRoot(\".out[3]\")))v"
"out<3>v" ".out[3]v"
"out<3>v" "\\1 [3]v"
"out<2>v" "(FUNCTION or(mappedRoot(\".1[2]@index\") mappedRoot(\".out[2]\")))v"
"out<2>v" ".out[2]v"
"out<2>v" "\\1 [2]v"
"out<1>v" "(FUNCTION or(mappedRoot(\".1[1]@index\") mappedRoot(\".out[1]\")))v"
"out<1>v" ".out[1]v"
"out<1>v" "\\1 [1]v"
"out<0>v" "(FUNCTION or(mappedRoot(\".1[0]@index\") mappedRoot(\".out[0]\")))v"
"out<0>v" ".out[0]v"
"out<0>v" "\\1 [0]v"
"enablev" "(FUNCTION or(mappedRoot(\".2@index\") mappedRoot(\".enable\")))v"
"enablev" ".enablev"
"enablev" ".\\2 v"
"clkv" "(FUNCTION or(mappedRoot(\".3@index\") mappedRoot(\".clk\")))v"
"clkv" ".clkv"
"clkv" ".\\3 v"
"resetv" "(FUNCTION or(mappedRoot(\".4@index\") mappedRoot(\".reset\")))v"
"resetv" ".resetv"
"resetv" ".\\4 v"
