HEADER
"PSFversion" "1.00"
"PSUBv" "(FUNCTION or(mappedRoot(\".5@index\") mappedRoot(\".PSUB\")))v"
"PSUBv" ".PSUBv"
"PSUBv" ".\\5 v"
"Yv" "(FUNCTION or(mappedRoot(\".1@index\") mappedRoot(\".Y\")))v"
"Yv" ".Yv"
"Yv" ".\\1 v"
"Av" "(FUNCTION or(mappedRoot(\".2@index\") mappedRoot(\".A\")))v"
"Av" ".Av"
"Av" ".\\2 v"
"VDDRv" "(FUNCTION or(mappedRoot(\".7@index\") mappedRoot(\".VDDR\")))v"
"VDDRv" ".VDDRv"
"VDDRv" ".\\7 v"
"GNDRv" "(FUNCTION or(mappedRoot(\".4@index\") mappedRoot(\".GNDR\")))v"
"GNDRv" ".GNDRv"
"GNDRv" ".\\4 v"
"GNDOv" "(FUNCTION or(mappedRoot(\".3@index\") mappedRoot(\".GNDO\")))v"
"GNDOv" ".GNDOv"
"GNDOv" ".\\3 v"
"VDDOv" "(FUNCTION or(mappedRoot(\".6@index\") mappedRoot(\".VDDO\")))v"
"VDDOv" ".VDDOv"
"VDDOv" ".\\6 v"
