HEADER
"PSFversion" "1.00"
"Time Stamp" "Feb 17 07:22:43 2024"
TYPE
"variable" STRUCT(
"value" FLOAT DOUBLE
) PROP( "key" "element" )
VALUE
"WF" "variable" ( 10e-6 ) PROP( )
"VDS" "variable" ( 2 ) PROP( )
"NF" "variable" ( 1 ) PROP( )
"L" "variable" ( 350e-9 ) PROP( )
"IDS" "variable" ( 1e-3 ) PROP( )
"temp" "variable" ( 27 ) PROP( )
END
