HEADER
"PSFversion" "1.00"
"Time Stamp" "Feb 18 11:06:01 2024"
TYPE
"variable" STRUCT(
"value" FLOAT DOUBLE
) PROP( "key" "element" )
VALUE
"VGS" "variable" ( 1 ) PROP( )
"VDS" "variable" ( 200e-3 ) PROP( )
"temperature" "variable" ( 27 ) PROP( )
"temp" "variable" ( 27 ) PROP( )
END
