HEADER
"PSFversion" "1.00"
"design" "(\"TOP\" \"top_tb\" \"config\" \"\")"
"simulator" "ams"
"temperature" "27"
"host" ""
"date" "Feb  7 08:36:47 2024"
"title" ""
"analysisList" "()"
END
