HEADER
"PSFversion" "1.00"
"VDD3Iv" "(FUNCTION or(mappedRoot(\".4@index\") mappedRoot(\".VDD3I\")))v"
"VDD3Iv" ".VDD3Iv"
"VDD3Iv" ".\\4 v"
"GNDIv" "(FUNCTION or(mappedRoot(\".1@index\") mappedRoot(\".GNDI\")))v"
"GNDIv" ".GNDIv"
"GNDIv" ".\\1 v"
"VDDRIv" "(FUNCTION or(mappedRoot(\".6@index\") mappedRoot(\".VDDRI\")))v"
"VDDRIv" ".VDDRIv"
"VDDRIv" ".\\6 v"
"PSUBv" "(FUNCTION or(mappedRoot(\".3@index\") mappedRoot(\".PSUB\")))v"
"PSUBv" ".PSUBv"
"PSUBv" ".\\3 v"
"GNDORIv" "(FUNCTION or(mappedRoot(\".2@index\") mappedRoot(\".GNDORI\")))v"
"GNDORIv" ".GNDORIv"
"GNDORIv" ".\\2 v"
"VDDOIv" "(FUNCTION or(mappedRoot(\".5@index\") mappedRoot(\".VDDOI\")))v"
"VDDOIv" ".VDDOIv"
"VDDOIv" ".\\5 v"
"IN<10>v" "IN_10v"
"IN<11>v" "IN_11v"
"IN<12>v" "IN_12v"
"IN<13>v" "IN_13v"
"IN<14>v" "IN_14v"
"IN<15>v" "IN_15v"
"IN<16>v" "IN_16v"
"IN<17>v" "IN_17v"
"IN<18>v" "IN_18v"
"IN<19>v" "IN_19v"
"IN<1>v" "IN_1v"
"IN<20>v" "IN_20v"
"IN<21>v" "IN_21v"
"IN<22>v" "IN_22v"
"IN<23>v" "IN_23v"
"IN<24>v" "IN_24v"
"IN<2>v" "IN_2v"
"IN<3>v" "IN_3v"
"IN<4>v" "IN_4v"
"IN<5>v" "IN_5v"
"IN<6>v" "IN_6v"
"IN<7>v" "IN_7v"
"IN<8>v" "IN_8v"
"IN<9>v" "IN_9v"
"R11n" "PRIMLIB_rdp3_spectre"
"I157n" "IO_CELLS_JIC3V_jio_andio_pc_cmos_sch"
"IN<10>n IN<11>n IN<12>n IN<13>n IN<14>n IN<15>n IN<16>n IN<17>n IN<18>n IN<19>n IN<1>n IN<20>n IN<21>n IN<22>n IN<23>n IN<24>n IN<2>n IN<3>n IN<4>n IN<5>n IN<6>n IN<7>n IN<8>n IN<9>n" "IO_CELLS_JIC3V_jio_ne3i_pc_cmos_sch"
