HEADER
"PSFversion" "1.00"
"av" "(FUNCTION or(mappedRoot(\".2@index\") mappedRoot(\".a\")))v"
"av" ".av"
"av" ".\\2 v"
"cv" "(FUNCTION or(mappedRoot(\".4@index\") mappedRoot(\".c\")))v"
"cv" ".cv"
"cv" ".\\4 v"
"bv" "(FUNCTION or(mappedRoot(\".3@index\") mappedRoot(\".b\")))v"
"bv" ".bv"
"bv" ".\\3 v"
"outv" "(FUNCTION or(mappedRoot(\".1@index\") mappedRoot(\".out\")))v"
"outv" ".outv"
"outv" ".\\1 v"
"vdd3iv" ".vdd3iv"
"gnd3iv" ".gnd3iv"
