HEADER
"PSFversion" "1.00"
"VDD3Iv" "(FUNCTION or(mappedRoot(\".4@index\") mappedRoot(\".VDD3I\")))v"
"VDD3Iv" ".VDD3Iv"
"VDD3Iv" ".\\4 v"
"GNDIv" "(FUNCTION or(mappedRoot(\".1@index\") mappedRoot(\".GNDI\")))v"
"GNDIv" ".GNDIv"
"GNDIv" ".\\1 v"
"VDDRIv" "(FUNCTION or(mappedRoot(\".6@index\") mappedRoot(\".VDDRI\")))v"
"VDDRIv" ".VDDRIv"
"VDDRIv" ".\\6 v"
"PSUBv" "(FUNCTION or(mappedRoot(\".3@index\") mappedRoot(\".PSUB\")))v"
"PSUBv" ".PSUBv"
"PSUBv" ".\\3 v"
"GNDORIv" "(FUNCTION or(mappedRoot(\".2@index\") mappedRoot(\".GNDORI\")))v"
"GNDORIv" ".GNDORIv"
"GNDORIv" ".\\2 v"
"VDDOIv" "(FUNCTION or(mappedRoot(\".5@index\") mappedRoot(\".VDDOI\")))v"
"VDDOIv" ".VDDOIv"
"VDDOIv" ".\\5 v"
