HEADER
"PSFversion" "1.00"
"Bv" "(FUNCTION or(mappedRoot(\".1@index\") mappedRoot(\".B\")))v"
"Bv" ".Bv"
"Bv" ".\\1 v"
"Gv" "(FUNCTION or(mappedRoot(\".3@index\") mappedRoot(\".G\")))v"
"Gv" ".Gv"
"Gv" ".\\3 v"
"Dv" "(FUNCTION or(mappedRoot(\".2@index\") mappedRoot(\".D\")))v"
"Dv" ".Dv"
"Dv" ".\\2 v"
"Sv" "(FUNCTION or(mappedRoot(\".4@index\") mappedRoot(\".S\")))v"
"Sv" ".Sv"
"Sv" ".\\4 v"
