HEADER
"PSFversion" "1.00"
"design" "(\"CHARACTERIZATION\" \"FAST_BIAS_3\" \"schematic\" \"\")"
"simulator" "spectre"
"temperature" "27"
"host" ""
"date" "Feb 17 04:56:54 2024"
"title" ""
"analysisList" "()"
END
