HEADER
"PSFversion" "1.00"
"Time Stamp" "Feb 17 04:56:54 2024"
TYPE
"variable" STRUCT(
"value" FLOAT DOUBLE
) PROP( "key" "element" )
VALUE
"VDS4" "variable" ( 800e-3 ) PROP( )
"NF4" "variable" ( 5 ) PROP( )
"L4" "variable" ( 350e-9 ) PROP( )
"WF4" "variable" ( 10e-6 ) PROP( )
"VDS5" "variable" ( 500e-3 ) PROP( )
"IDS5" "variable" ( 2.6e-3 ) PROP( )
"NF5" "variable" ( 50 ) PROP( )
"L5" "variable" ( 350e-9 ) PROP( )
"WF5" "variable" ( 10e-6 ) PROP( )
"VDS6" "variable" ( 1.1 ) PROP( )
"IDS4" "variable" ( 1.3e-3 ) PROP( )
"NF6" "variable" ( 1 ) PROP( )
"L6" "variable" ( 350e-9 ) PROP( )
"WF6" "variable" ( 15e-6 ) PROP( )
"NF1" "variable" ( 10 ) PROP( )
"L1" "variable" ( 1e-6 ) PROP( )
"WF1" "variable" ( 10e-6 ) PROP( )
"VDS1" "variable" ( 500e-3 ) PROP( )
"IDS1" "variable" ( 1e-6 ) PROP( )
"NF2" "variable" ( 10 ) PROP( )
"L2" "variable" ( 350e-9 ) PROP( )
"WF2" "variable" ( 20e-6 ) PROP( )
"VDS2" "variable" ( 500e-3 ) PROP( )
"IDS2" "variable" ( 80e-6 ) PROP( )
"NF3" "variable" ( 1 ) PROP( )
"L3" "variable" ( 500e-9 ) PROP( )
"WF3" "variable" ( 20e-6 ) PROP( )
"VDS3" "variable" ( 1.2 ) PROP( )
"IDS3" "variable" ( 10e-6 ) PROP( )
"IDS6" "variable" ( 3e-6 ) PROP( )
"temp" "variable" ( 27 ) PROP( )
END
