HEADER
"PSFversion" "1.00"
"design" "(\"INV_HV\" \"inv_hv_tb\" \"schematic\" \"\")"
"simulator" "spectre"
"temperature" "27"
"host" ""
"date" "Feb  5 02:37:34 2024"
"title" ""
"analysisList" "()"
END
