HEADER
"PSFversion" "1.00"
"design" "(\"CHARACTERIZATION\" \"GMID_NMOS_3\" \"schematic\" \"\")"
"simulator" "spectre"
"temperature" "27"
"host" ""
"date" "Feb 17 06:04:05 2024"
"title" ""
"analysisList" "()"
END
