HEADER
"PSFversion" "1.00"
"Time Stamp" "Feb 17 06:04:05 2024"
TYPE
"variable" STRUCT(
"value" FLOAT DOUBLE
) PROP( "key" "element" )
VALUE
"IDS1" "variable" ( 1e-6 ) PROP( )
"L1" "variable" ( 350e-9 ) PROP( )
"NF1" "variable" ( 1 ) PROP( )
"VDS1" "variable" ( 1 ) PROP( )
"WF1" "variable" ( 10e-6 ) PROP( )
"temp" "variable" ( 27 ) PROP( )
END
