HEADER
"PSFversion" "1.00"
"GSBv" "(FUNCTION or(mappedRoot(\".2@index\") mappedRoot(\".GSB\")))v"
"GSBv" ".GSBv"
"GSBv" ".\\2 v"
"Subv" "(FUNCTION or(mappedRoot(\".3@index\") mappedRoot(\".Sub\")))v"
"Subv" ".Subv"
"Subv" ".\\3 v"
"Dv" "(FUNCTION or(mappedRoot(\".1@index\") mappedRoot(\".D\")))v"
"Dv" ".Dv"
"Dv" ".\\1 v"
