HEADER
"PSFversion" "1.00"
"GNDOv" "(FUNCTION or(mappedRoot(\".1@index\") mappedRoot(\".GNDO\")))v"
"GNDOv" ".GNDOv"
"GNDOv" ".\\1 v"
"IGNDv" "(FUNCTION or(mappedRoot(\".2@index\") mappedRoot(\".IGND\")))v"
"IGNDv" ".IGNDv"
"IGNDv" ".\\2 v"
"PADv" "(FUNCTION or(mappedRoot(\".3@index\") mappedRoot(\".PAD\")))v"
"PADv" ".PADv"
"PADv" ".\\3 v"
"R4n" "PRIMLIB_rpp1s_spectre"
"I10n" "HV_CELLS_ioh_iscrd2_4x100_schematic"
"I11n" "HV_CELLS_ioh_c5pk_schematic"
"I9n" "HV_CELLS_ioh_dhpw_2x100_stack3_schematic"
