HEADER
"PSFversion" "1.00"
"GNDOI2v" "(FUNCTION or(mappedRoot(\".4@index\") mappedRoot(\".GNDOI2\")))v"
"GNDOI2v" ".GNDOI2v"
"GNDOI2v" ".\\4 v"
"GNDOI1v" "(FUNCTION or(mappedRoot(\".3@index\") mappedRoot(\".GNDOI1\")))v"
"GNDOI1v" ".GNDOI1v"
"GNDOI1v" ".\\3 v"
"PSUBv" "(FUNCTION or(mappedRoot(\".7@index\") mappedRoot(\".PSUB\")))v"
"PSUBv" ".PSUBv"
"PSUBv" ".\\7 v"
"VDD3I2v" "(FUNCTION or(mappedRoot(\".9@index\") mappedRoot(\".VDD3I2\")))v"
"VDD3I2v" ".VDD3I2v"
"VDD3I2v" ".\\9 v"
"GNDI2v" "(FUNCTION or(mappedRoot(\".2@index\") mappedRoot(\".GNDI2\")))v"
"GNDI2v" ".GNDI2v"
"GNDI2v" ".\\2 v"
"GNDI1v" "(FUNCTION or(mappedRoot(\".1@index\") mappedRoot(\".GNDI1\")))v"
"GNDI1v" ".GNDI1v"
"GNDI1v" ".\\1 v"
"VDDRI1v" "(FUNCTION or(mappedRoot(\".12@index\") mappedRoot(\".VDDRI1\")))v"
"VDDRI1v" ".VDDRI1v"
"VDDRI1v" ".\\12 v"
"VDDRI2v" "(FUNCTION or(mappedRoot(\".13@index\") mappedRoot(\".VDDRI2\")))v"
"VDDRI2v" ".VDDRI2v"
"VDDRI2v" ".\\13 v"
"GNDRI2v" "(FUNCTION or(mappedRoot(\".6@index\") mappedRoot(\".GNDRI2\")))v"
"GNDRI2v" ".GNDRI2v"
"GNDRI2v" ".\\6 v"
"GNDRI1v" "(FUNCTION or(mappedRoot(\".5@index\") mappedRoot(\".GNDRI1\")))v"
"GNDRI1v" ".GNDRI1v"
"GNDRI1v" ".\\5 v"
"VDDOI2v" "(FUNCTION or(mappedRoot(\".11@index\") mappedRoot(\".VDDOI2\")))v"
"VDDOI2v" ".VDDOI2v"
"VDDOI2v" ".\\11 v"
"VDDOI1v" "(FUNCTION or(mappedRoot(\".10@index\") mappedRoot(\".VDDOI1\")))v"
"VDDOI1v" ".VDDOI1v"
"VDDOI1v" ".\\10 v"
"VDD3I1v" "(FUNCTION or(mappedRoot(\".8@index\") mappedRoot(\".VDD3I1\")))v"
"VDD3I1v" ".VDD3I1v"
"VDD3I1v" ".\\8 v"
"D1<1>v" "D1_1v"
"D1<10>v" "D1_10v"
"D1<11>v" "D1_11v"
"D1<12>v" "D1_12v"
"D1<13>v" "D1_13v"
"D1<14>v" "D1_14v"
"D1<15>v" "D1_15v"
"D1<2>v" "D1_2v"
"D1<3>v" "D1_3v"
"D1<4>v" "D1_4v"
"D1<5>v" "D1_5v"
"D1<6>v" "D1_6v"
"D1<7>v" "D1_7v"
"D1<8>v" "D1_8v"
"D1<9>v" "D1_9v"
"D4<1>v" "D4_1v"
"D4<10>v" "D4_10v"
"D4<11>v" "D4_11v"
"D4<12>v" "D4_12v"
"D4<13>v" "D4_13v"
"D4<14>v" "D4_14v"
"D4<2>v" "D4_2v"
"D4<3>v" "D4_3v"
"D4<4>v" "D4_4v"
"D4<5>v" "D4_5v"
"D4<6>v" "D4_6v"
"D4<7>v" "D4_7v"
"D4<8>v" "D4_8v"
"D4<9>v" "D4_9v"
"D1<10>n D1<11>n D1<12>n D1<13>n D1<14>n D1<15>n D1<1>n D1<2>n D1<3>n D1<4>n D1<5>n D1<6>n D1<7>n D1<8>n D1<9>n D4<10>n D4<11>n D4<12>n D4<13>n D4<14>n D4<1>n D4<2>n D4<3>n D4<4>n D4<5>n D4<6>n D4<7>n D4<8>n D4<9>n" "PRIMLIB_dp3_spectre"
