HEADER
"PSFversion" "1.00"
"VDD3Iv" "(FUNCTION or(mappedRoot(\".5@index\") mappedRoot(\".VDD3I\")))v"
"VDD3Iv" ".VDD3Iv"
"VDD3Iv" ".\\5 v"
"GNDOIv" "(FUNCTION or(mappedRoot(\".2@index\") mappedRoot(\".GNDOI\")))v"
"GNDOIv" ".GNDOIv"
"GNDOIv" ".\\2 v"
"GNDIv" "(FUNCTION or(mappedRoot(\".1@index\") mappedRoot(\".GNDI\")))v"
"GNDIv" ".GNDIv"
"GNDIv" ".\\1 v"
"VDDRIv" "(FUNCTION or(mappedRoot(\".7@index\") mappedRoot(\".VDDRI\")))v"
"VDDRIv" ".VDDRIv"
"VDDRIv" ".\\7 v"
"PSUBv" "(FUNCTION or(mappedRoot(\".4@index\") mappedRoot(\".PSUB\")))v"
"PSUBv" ".PSUBv"
"PSUBv" ".\\4 v"
"GNDRIv" "(FUNCTION or(mappedRoot(\".3@index\") mappedRoot(\".GNDRI\")))v"
"GNDRIv" ".GNDRIv"
"GNDRIv" ".\\3 v"
"VDDOIv" "(FUNCTION or(mappedRoot(\".6@index\") mappedRoot(\".VDDOI\")))v"
"VDDOIv" ".VDDOIv"
"VDDOIv" ".\\6 v"
"I1<1>v" "I1_1v"
"I1<2>v" "I1_2v"
"IN1<10>v" "IN1_10v"
"IN1<11>v" "IN1_11v"
"IN1<12>v" "IN1_12v"
"IN1<13>v" "IN1_13v"
"IN1<14>v" "IN1_14v"
"IN1<15>v" "IN1_15v"
"IN1<16>v" "IN1_16v"
"IN1<17>v" "IN1_17v"
"IN1<18>v" "IN1_18v"
"IN1<19>v" "IN1_19v"
"IN1<1>v" "IN1_1v"
"IN1<20>v" "IN1_20v"
"IN1<21>v" "IN1_21v"
"IN1<22>v" "IN1_22v"
"IN1<23>v" "IN1_23v"
"IN1<24>v" "IN1_24v"
"IN1<2>v" "IN1_2v"
"IN1<3>v" "IN1_3v"
"IN1<4>v" "IN1_4v"
"IN1<5>v" "IN1_5v"
"IN1<6>v" "IN1_6v"
"IN1<7>v" "IN1_7v"
"IN1<8>v" "IN1_8v"
"IN1<9>v" "IN1_9v"
"IN2<10>v" "IN2_10v"
"IN2<11>v" "IN2_11v"
"IN2<12>v" "IN2_12v"
"IN2<13>v" "IN2_13v"
"IN2<14>v" "IN2_14v"
"IN2<15>v" "IN2_15v"
"IN2<16>v" "IN2_16v"
"IN2<17>v" "IN2_17v"
"IN2<18>v" "IN2_18v"
"IN2<19>v" "IN2_19v"
"IN2<1>v" "IN2_1v"
"IN2<20>v" "IN2_20v"
"IN2<21>v" "IN2_21v"
"IN2<22>v" "IN2_22v"
"IN2<23>v" "IN2_23v"
"IN2<24>v" "IN2_24v"
"IN2<2>v" "IN2_2v"
"IN2<3>v" "IN2_3v"
"IN2<4>v" "IN2_4v"
"IN2<5>v" "IN2_5v"
"IN2<6>v" "IN2_6v"
"IN2<7>v" "IN2_7v"
"IN2<8>v" "IN2_8v"
"IN2<9>v" "IN2_9v"
"R1n R2n" "PRIMLIB_rdp3_spectre"
"I1<1>n I1<2>n" "IO_CELLS_JIC3V_jio_andio_pc_cmos_sch"
"IN1<10>n IN1<11>n IN1<12>n IN1<13>n IN1<14>n IN1<15>n IN1<16>n IN1<17>n IN1<18>n IN1<19>n IN1<1>n IN1<20>n IN1<21>n IN1<22>n IN1<23>n IN1<24>n IN1<2>n IN1<3>n IN1<4>n IN1<5>n IN1<6>n IN1<7>n IN1<8>n IN1<9>n IN2<10>n IN2<11>n IN2<12>n IN2<13>n IN2<14>n IN2<15>n IN2<16>n IN2<17>n IN2<18>n IN2<19>n IN2<1>n IN2<20>n IN2<21>n IN2<22>n IN2<23>n IN2<24>n IN2<2>n IN2<3>n IN2<4>n IN2<5>n IN2<6>n IN2<7>n IN2<8>n IN2<9>n" "IO_CELLS_JIC3V_jio_ne3i_pc_cmos_sch"
