HEADER
"PSFversion" "1.00"
"gnd!v" "cds_globals.\\gnd! v"
"gnd3i!v" "cds_globals.\\gnd3i! v"
"net20<0>v" "net20[0]v"
"net20<10>v" "net20[10]v"
"net20<11>v" "net20[11]v"
"net20<12>v" "net20[12]v"
"net20<13>v" "net20[13]v"
"net20<14>v" "net20[14]v"
"net20<15>v" "net20[15]v"
"net20<16>v" "net20[16]v"
"net20<17>v" "net20[17]v"
"net20<18>v" "net20[18]v"
"net20<19>v" "net20[19]v"
"net20<1>v" "net20[1]v"
"net20<20>v" "net20[20]v"
"net20<21>v" "net20[21]v"
"net20<22>v" "net20[22]v"
"net20<23>v" "net20[23]v"
"net20<24>v" "net20[24]v"
"net20<25>v" "net20[25]v"
"net20<26>v" "net20[26]v"
"net20<27>v" "net20[27]v"
"net20<28>v" "net20[28]v"
"net20<29>v" "net20[29]v"
"net20<2>v" "net20[2]v"
"net20<30>v" "net20[30]v"
"net20<31>v" "net20[31]v"
"net20<32>v" "net20[32]v"
"net20<33>v" "net20[33]v"
"net20<34>v" "net20[34]v"
"net20<35>v" "net20[35]v"
"net20<36>v" "net20[36]v"
"net20<37>v" "net20[37]v"
"net20<38>v" "net20[38]v"
"net20<39>v" "net20[39]v"
"net20<3>v" "net20[3]v"
"net20<40>v" "net20[40]v"
"net20<41>v" "net20[41]v"
"net20<42>v" "net20[42]v"
"net20<43>v" "net20[43]v"
"net20<44>v" "net20[44]v"
"net20<45>v" "net20[45]v"
"net20<46>v" "net20[46]v"
"net20<47>v" "net20[47]v"
"net20<48>v" "net20[48]v"
"net20<49>v" "net20[49]v"
"net20<4>v" "net20[4]v"
"net20<5>v" "net20[5]v"
"net20<6>v" "net20[6]v"
"net20<7>v" "net20[7]v"
"net20<8>v" "net20[8]v"
"net20<9>v" "net20[9]v"
"vdd3i!v" "cds_globals.\\vdd3i! v"
