HEADER
"PSFversion" "1.00"
"design" "(\"TOP\" \"top_tb\" \"config_sch\" \"\")"
"simulator" "ams"
"temperature" "27"
"host" ""
"date" "Feb 12 01:23:15 2024"
"title" ""
"analysisList" "()"
END
