HEADER
"PSFversion" "1.00"
"Time Stamp" "Feb 18 11:03:26 2024"
TYPE
"variable" STRUCT(
"value" FLOAT DOUBLE
) PROP( "key" "element" )
VALUE
"VDS" "variable" ( 1 ) PROP( )
"VGS" "variable" ( 900e-3 ) PROP( )
"temperature" "variable" ( 27 ) PROP( )
"temp" "variable" ( 27 ) PROP( )
END
