HEADER
"PSFversion" "1.00"
"Run Generator" "drlRun rev. 1.0"
"Run Time Stamp" "Feb 18 11:04:46 2024"
"date" "Feb 18 11:04:46 2024"
"simulator" "spectre"
"netlistDir" "../netlist"
"axlParamFlag" "true"
 "externalSweepVariableCount" 1
TYPE
"runObject" STRUCT(
"logName" ARRAY( * ) STRING *
"parent" STRING *
"sweepVariable" ARRAY( * ) STRING *
) PROP( "key" "runObject" )
VALUE
"Root" "runObject" (
("")
""
("VGS")
)
"VGS=0.0" "runObject" (
(
"../../../1/CHARACTERIZATION:DC_BIAS_NMOS:1/psf/logFile"
"../../../1/CHARACTERIZATION:DC_BIAS_NMOS:1/psf/artistLogFile"
)
"Root"
()
) PROP(
"#maeCorner" "nom"
 "#pointID" 1
"netlistDir" "../../../1/CHARACTERIZATION:DC_BIAS_NMOS:1/netlist"
"dataDir" "../../../1/CHARACTERIZATION:DC_BIAS_NMOS:1"
 "VGS" 0.000000e+00
)

"VGS=0.1" "runObject" (
(
"../../../2/CHARACTERIZATION:DC_BIAS_NMOS:1/psf/logFile"
"../../../2/CHARACTERIZATION:DC_BIAS_NMOS:1/psf/artistLogFile"
)
"Root"
()
) PROP(
"#maeCorner" "nom"
 "#pointID" 2
"netlistDir" "../../../2/CHARACTERIZATION:DC_BIAS_NMOS:1/netlist"
"dataDir" "../../../2/CHARACTERIZATION:DC_BIAS_NMOS:1"
 "VGS" 1.000000e-01
)

"VGS=0.2" "runObject" (
(
"../../../3/CHARACTERIZATION:DC_BIAS_NMOS:1/psf/logFile"
"../../../3/CHARACTERIZATION:DC_BIAS_NMOS:1/psf/artistLogFile"
)
"Root"
()
) PROP(
"#maeCorner" "nom"
 "#pointID" 3
"netlistDir" "../../../3/CHARACTERIZATION:DC_BIAS_NMOS:1/netlist"
"dataDir" "../../../3/CHARACTERIZATION:DC_BIAS_NMOS:1"
 "VGS" 2.000000e-01
)

"VGS=0.3" "runObject" (
(
"../../../4/CHARACTERIZATION:DC_BIAS_NMOS:1/psf/logFile"
"../../../4/CHARACTERIZATION:DC_BIAS_NMOS:1/psf/artistLogFile"
)
"Root"
()
) PROP(
"#maeCorner" "nom"
 "#pointID" 4
"netlistDir" "../../../4/CHARACTERIZATION:DC_BIAS_NMOS:1/netlist"
"dataDir" "../../../4/CHARACTERIZATION:DC_BIAS_NMOS:1"
 "VGS" 3.000000e-01
)

"VGS=0.4" "runObject" (
(
"../../../5/CHARACTERIZATION:DC_BIAS_NMOS:1/psf/logFile"
"../../../5/CHARACTERIZATION:DC_BIAS_NMOS:1/psf/artistLogFile"
)
"Root"
()
) PROP(
"#maeCorner" "nom"
 "#pointID" 5
"netlistDir" "../../../5/CHARACTERIZATION:DC_BIAS_NMOS:1/netlist"
"dataDir" "../../../5/CHARACTERIZATION:DC_BIAS_NMOS:1"
 "VGS" 4.000000e-01
)

"VGS=0.5" "runObject" (
(
"../../../6/CHARACTERIZATION:DC_BIAS_NMOS:1/psf/logFile"
"../../../6/CHARACTERIZATION:DC_BIAS_NMOS:1/psf/artistLogFile"
)
"Root"
()
) PROP(
"#maeCorner" "nom"
 "#pointID" 6
"netlistDir" "../../../6/CHARACTERIZATION:DC_BIAS_NMOS:1/netlist"
"dataDir" "../../../6/CHARACTERIZATION:DC_BIAS_NMOS:1"
 "VGS" 5.000000e-01
)

"VGS=0.6" "runObject" (
(
"../../../7/CHARACTERIZATION:DC_BIAS_NMOS:1/psf/logFile"
"../../../7/CHARACTERIZATION:DC_BIAS_NMOS:1/psf/artistLogFile"
)
"Root"
()
) PROP(
"#maeCorner" "nom"
 "#pointID" 7
"netlistDir" "../../../7/CHARACTERIZATION:DC_BIAS_NMOS:1/netlist"
"dataDir" "../../../7/CHARACTERIZATION:DC_BIAS_NMOS:1"
 "VGS" 6.000000e-01
)

"VGS=0.7000000000000001" "runObject" (
(
"../../../8/CHARACTERIZATION:DC_BIAS_NMOS:1/psf/logFile"
"../../../8/CHARACTERIZATION:DC_BIAS_NMOS:1/psf/artistLogFile"
)
"Root"
()
) PROP(
"#maeCorner" "nom"
 "#pointID" 8
"netlistDir" "../../../8/CHARACTERIZATION:DC_BIAS_NMOS:1/netlist"
"dataDir" "../../../8/CHARACTERIZATION:DC_BIAS_NMOS:1"
 "VGS" 7.000000e-01
)

"VGS=0.8" "runObject" (
(
"../../../9/CHARACTERIZATION:DC_BIAS_NMOS:1/psf/logFile"
"../../../9/CHARACTERIZATION:DC_BIAS_NMOS:1/psf/artistLogFile"
)
"Root"
()
) PROP(
"#maeCorner" "nom"
 "#pointID" 9
"netlistDir" "../../../9/CHARACTERIZATION:DC_BIAS_NMOS:1/netlist"
"dataDir" "../../../9/CHARACTERIZATION:DC_BIAS_NMOS:1"
 "VGS" 8.000000e-01
)

"VGS=0.9" "runObject" (
(
"../../../10/CHARACTERIZATION:DC_BIAS_NMOS:1/psf/logFile"
"../../../10/CHARACTERIZATION:DC_BIAS_NMOS:1/psf/artistLogFile"
)
"Root"
()
) PROP(
"#maeCorner" "nom"
 "#pointID" 10
"netlistDir" "../../../10/CHARACTERIZATION:DC_BIAS_NMOS:1/netlist"
"dataDir" "../../../10/CHARACTERIZATION:DC_BIAS_NMOS:1"
 "VGS" 9.000000e-01
)

"VGS=1.0" "runObject" (
(
"../../../11/CHARACTERIZATION:DC_BIAS_NMOS:1/psf/logFile"
"../../../11/CHARACTERIZATION:DC_BIAS_NMOS:1/psf/artistLogFile"
)
"Root"
()
) PROP(
"#maeCorner" "nom"
 "#pointID" 11
"netlistDir" "../../../11/CHARACTERIZATION:DC_BIAS_NMOS:1/netlist"
"dataDir" "../../../11/CHARACTERIZATION:DC_BIAS_NMOS:1"
 "VGS" 1.000000e+00
)

"VGS=1.1" "runObject" (
(
"../../../12/CHARACTERIZATION:DC_BIAS_NMOS:1/psf/logFile"
"../../../12/CHARACTERIZATION:DC_BIAS_NMOS:1/psf/artistLogFile"
)
"Root"
()
) PROP(
"#maeCorner" "nom"
 "#pointID" 12
"netlistDir" "../../../12/CHARACTERIZATION:DC_BIAS_NMOS:1/netlist"
"dataDir" "../../../12/CHARACTERIZATION:DC_BIAS_NMOS:1"
 "VGS" 1.100000e+00
)

"VGS=1.2" "runObject" (
(
"../../../13/CHARACTERIZATION:DC_BIAS_NMOS:1/psf/logFile"
"../../../13/CHARACTERIZATION:DC_BIAS_NMOS:1/psf/artistLogFile"
)
"Root"
()
) PROP(
"#maeCorner" "nom"
 "#pointID" 13
"netlistDir" "../../../13/CHARACTERIZATION:DC_BIAS_NMOS:1/netlist"
"dataDir" "../../../13/CHARACTERIZATION:DC_BIAS_NMOS:1"
 "VGS" 1.200000e+00
)

"VGS=1.3" "runObject" (
(
"../../../14/CHARACTERIZATION:DC_BIAS_NMOS:1/psf/logFile"
"../../../14/CHARACTERIZATION:DC_BIAS_NMOS:1/psf/artistLogFile"
)
"Root"
()
) PROP(
"#maeCorner" "nom"
 "#pointID" 14
"netlistDir" "../../../14/CHARACTERIZATION:DC_BIAS_NMOS:1/netlist"
"dataDir" "../../../14/CHARACTERIZATION:DC_BIAS_NMOS:1"
 "VGS" 1.300000e+00
)

"VGS=1.4" "runObject" (
(
"../../../15/CHARACTERIZATION:DC_BIAS_NMOS:1/psf/logFile"
"../../../15/CHARACTERIZATION:DC_BIAS_NMOS:1/psf/artistLogFile"
)
"Root"
()
) PROP(
"#maeCorner" "nom"
 "#pointID" 15
"netlistDir" "../../../15/CHARACTERIZATION:DC_BIAS_NMOS:1/netlist"
"dataDir" "../../../15/CHARACTERIZATION:DC_BIAS_NMOS:1"
 "VGS" 1.400000e+00
)

"VGS=1.5" "runObject" (
(
"../../../16/CHARACTERIZATION:DC_BIAS_NMOS:1/psf/logFile"
"../../../16/CHARACTERIZATION:DC_BIAS_NMOS:1/psf/artistLogFile"
)
"Root"
()
) PROP(
"#maeCorner" "nom"
 "#pointID" 16
"netlistDir" "../../../16/CHARACTERIZATION:DC_BIAS_NMOS:1/netlist"
"dataDir" "../../../16/CHARACTERIZATION:DC_BIAS_NMOS:1"
 "VGS" 1.500000e+00
)

"VGS=1.6" "runObject" (
(
"../../../17/CHARACTERIZATION:DC_BIAS_NMOS:1/psf/logFile"
"../../../17/CHARACTERIZATION:DC_BIAS_NMOS:1/psf/artistLogFile"
)
"Root"
()
) PROP(
"#maeCorner" "nom"
 "#pointID" 17
"netlistDir" "../../../17/CHARACTERIZATION:DC_BIAS_NMOS:1/netlist"
"dataDir" "../../../17/CHARACTERIZATION:DC_BIAS_NMOS:1"
 "VGS" 1.600000e+00
)

"VGS=1.7" "runObject" (
(
"../../../18/CHARACTERIZATION:DC_BIAS_NMOS:1/psf/logFile"
"../../../18/CHARACTERIZATION:DC_BIAS_NMOS:1/psf/artistLogFile"
)
"Root"
()
) PROP(
"#maeCorner" "nom"
 "#pointID" 18
"netlistDir" "../../../18/CHARACTERIZATION:DC_BIAS_NMOS:1/netlist"
"dataDir" "../../../18/CHARACTERIZATION:DC_BIAS_NMOS:1"
 "VGS" 1.700000e+00
)

"VGS=1.8" "runObject" (
(
"../../../19/CHARACTERIZATION:DC_BIAS_NMOS:1/psf/logFile"
"../../../19/CHARACTERIZATION:DC_BIAS_NMOS:1/psf/artistLogFile"
)
"Root"
()
) PROP(
"#maeCorner" "nom"
 "#pointID" 19
"netlistDir" "../../../19/CHARACTERIZATION:DC_BIAS_NMOS:1/netlist"
"dataDir" "../../../19/CHARACTERIZATION:DC_BIAS_NMOS:1"
 "VGS" 1.800000e+00
)

END
