HEADER
"PSFversion" "1.00"
"Run Generator" "drlRun rev. 1.0"
"Run Time Stamp" "Feb  5 01:58:03 2024"
"date" "Feb  5 01:58:03 2024"
"simulator" "spectre"
"netlistDir" "../netlist"
"axlParamFlag" "true"
 "externalSweepVariableCount" 1
TYPE
"runObject" STRUCT(
"logName" ARRAY( * ) STRING *
"parent" STRING *
"sweepVariable" ARRAY( * ) STRING *
) PROP( "key" "runObject" )
VALUE
"Root" "runObject" (
("")
""
("VGS")
)
"VGS=1.0" "runObject" (
(
"../../../1/INV_HV:nedia_dc:1/psf/logFile"
"../../../1/INV_HV:nedia_dc:1/psf/artistLogFile"
)
"Root"
()
) PROP(
"#maeCorner" "nom"
 "#pointID" 1
"netlistDir" "../../../1/INV_HV:nedia_dc:1/netlist"
"dataDir" "../../../1/INV_HV:nedia_dc:1"
 "VGS" 1.000000e+00
)

END
