HEADER
"PSFversion" "1.00"
"Run Generator" "drlRun rev. 1.0"
"Run Time Stamp" "Feb  5 02:04:26 2024"
"simulator" "spectre"
"date" "Feb  5 02:04:26 2024"
 "externalSweepVariableCount" 0
"#maeTestName" "INV_HV:nedia_dc:1"
"#maeHistoryName" "Interactive.5"
"#maeCorner" "nom"
 "#maeDesignPoint" 14
"netlistDir" "../netlist"
TYPE
"runObject" STRUCT(
"logName" ARRAY( * ) STRING *
"parent" STRING *
"sweepVariable" ARRAY( * ) STRING *
) PROP( "key" "runObject" )
VALUE
"Run1" "runObject" (
(
"logFile"
"artistLogFile"
)
""
()
)
END
