HEADER
"PSFversion" "1.00"
"Av" "(FUNCTION or(mappedRoot(\".2@index\") mappedRoot(\".A\")))v"
"Av" ".Av"
"Av" ".\\2 v"
"Bv" "(FUNCTION or(mappedRoot(\".3@index\") mappedRoot(\".B\")))v"
"Bv" ".Bv"
"Bv" ".\\3 v"
"Qv" "(FUNCTION or(mappedRoot(\".1@index\") mappedRoot(\".Q\")))v"
"Qv" ".Qv"
"Qv" ".\\1 v"
"vdd3iv" ".vdd3iv"
"gnd3iv" ".gnd3iv"
"nand2_1n" "GATES_JI3V_nand2ji3v_schematic"
"o2na2_1n" "GATES_JI3V_o2na2ji3v_schematic"
