HEADER
"PSFversion" "1.00"
"M4n M5n" "PRIMLIB_pe3i_spectre"
"M6n M7n" "PRIMLIB_ne3i_spectre"
