HEADER
"PSFversion" "1.00"
"PSUBv" "(FUNCTION or(mappedRoot(\".15@index\") mappedRoot(\".PSUB\")))v"
"PSUBv" ".PSUBv"
"PSUBv" ".\\15 v"
"VDDDv" "(FUNCTION or(mappedRoot(\".18@index\") mappedRoot(\".VDDD\")))v"
"VDDDv" ".VDDDv"
"VDDDv" ".\\18 v"
"VDDORv" "(FUNCTION or(mappedRoot(\".20@index\") mappedRoot(\".VDDOR\")))v"
"VDDORv" ".VDDORv"
"VDDORv" ".\\20 v"
"GNDDv" "(FUNCTION or(mappedRoot(\".4@index\") mappedRoot(\".GNDD\")))v"
"GNDDv" ".GNDDv"
"GNDDv" ".\\4 v"
"GNDORv" "(FUNCTION or(mappedRoot(\".7@index\") mappedRoot(\".GNDOR\")))v"
"GNDORv" ".GNDORv"
"GNDORv" ".\\7 v"
"RESETv" "(FUNCTION or(mappedRoot(\".16@index\") mappedRoot(\".RESET\")))v"
"RESETv" ".RESETv"
"RESETv" ".\\16 v"
"reset_corev" "(FUNCTION or(mappedRoot(\".28@index\") mappedRoot(\".reset_core\")))v"
"reset_corev" ".reset_corev"
"reset_corev" ".\\28 v"
"out2_corev" "(FUNCTION or(mappedRoot(\".27@index\") mappedRoot(\".out2_core\")))v"
"out2_corev" ".out2_corev"
"out2_corev" ".\\27 v"
"OUT2v" "(FUNCTION or(mappedRoot(\".12@index\") mappedRoot(\".OUT2\")))v"
"OUT2v" ".OUT2v"
"OUT2v" ".\\12 v"
"CLKv" "(FUNCTION or(mappedRoot(\".1@index\") mappedRoot(\".CLK\")))v"
"CLKv" ".CLKv"
"CLKv" ".\\1 v"
"clk_corev" "(FUNCTION or(mappedRoot(\".22@index\") mappedRoot(\".clk_core\")))v"
"clk_corev" ".clk_corev"
"clk_corev" ".\\22 v"
"out1_corev" "(FUNCTION or(mappedRoot(\".26@index\") mappedRoot(\".out1_core\")))v"
"out1_corev" ".out1_corev"
"out1_corev" ".\\26 v"
"OUT1v" "(FUNCTION or(mappedRoot(\".11@index\") mappedRoot(\".OUT1\")))v"
"OUT1v" ".OUT1v"
"OUT1v" ".\\11 v"
"ENABLEv" "(FUNCTION or(mappedRoot(\".2@index\") mappedRoot(\".ENABLE\")))v"
"ENABLEv" ".ENABLEv"
"ENABLEv" ".\\2 v"
"enable_corev" "(FUNCTION or(mappedRoot(\".23@index\") mappedRoot(\".enable_core\")))v"
"enable_corev" ".enable_corev"
"enable_corev" ".\\23 v"
"out0_corev" "(FUNCTION or(mappedRoot(\".25@index\") mappedRoot(\".out0_core\")))v"
"out0_corev" ".out0_corev"
"out0_corev" ".\\25 v"
"OUT0v" "(FUNCTION or(mappedRoot(\".10@index\") mappedRoot(\".OUT0\")))v"
"OUT0v" ".OUT0v"
"OUT0v" ".\\10 v"
"VDDAv" "(FUNCTION or(mappedRoot(\".17@index\") mappedRoot(\".VDDA\")))v"
"VDDAv" ".VDDAv"
"VDDAv" ".\\17 v"
"VDDORAv" "(FUNCTION or(mappedRoot(\".21@index\") mappedRoot(\".VDDORA\")))v"
"VDDORAv" ".VDDORAv"
"VDDORAv" ".\\21 v"
"GNDAv" "(FUNCTION or(mappedRoot(\".3@index\") mappedRoot(\".GNDA\")))v"
"GNDAv" ".GNDAv"
"GNDAv" ".\\3 v"
"GNDORAv" "(FUNCTION or(mappedRoot(\".8@index\") mappedRoot(\".GNDORA\")))v"
"GNDORAv" ".GNDORAv"
"GNDORAv" ".\\8 v"
"OUTLv" "(FUNCTION or(mappedRoot(\".14@index\") mappedRoot(\".OUTL\")))v"
"OUTLv" ".OUTLv"
"OUTLv" ".\\14 v"
"INLv" "(FUNCTION or(mappedRoot(\".9@index\") mappedRoot(\".INL\")))v"
"INLv" ".INLv"
"INLv" ".\\9 v"
"inl_corev" "(FUNCTION or(mappedRoot(\".24@index\") mappedRoot(\".inl_core\")))v"
"inl_corev" ".inl_corev"
"inl_corev" ".\\24 v"
"OUTHVv" "(FUNCTION or(mappedRoot(\".13@index\") mappedRoot(\".OUTHV\")))v"
"OUTHVv" ".OUTHVv"
"OUTHVv" ".\\13 v"
"GNDHVv" "(FUNCTION or(mappedRoot(\".5@index\") mappedRoot(\".GNDHV\")))v"
"GNDHVv" ".GNDHVv"
"GNDHVv" ".\\5 v"
"GNDOHVv" "(FUNCTION or(mappedRoot(\".6@index\") mappedRoot(\".GNDOHV\")))v"
"GNDOHVv" ".GNDOHVv"
"GNDOHVv" ".\\6 v"
"VDDHVv" "(FUNCTION or(mappedRoot(\".19@index\") mappedRoot(\".VDDHV\")))v"
"VDDHVv" ".VDDHVv"
"VDDHVv" ".\\19 v"
"R0n" "PRIMLIB_s_res_spectre"
"I0n I20n" "IO_CELLS_JIC3V_GNDORPADPC_cmos_sch"
"I1n I18n" "IO_CELLS_JIC3V_VDDORPADPC_cmos_sch"
"I10n I11n I9n" "IO_CELLS_JIC3V_ICPC_cmos_sch"
"I12n I34n I35n" "IO_CELLS_JIC3V_PWRCUTDCPC_cmos_sch"
"I15n I16n I17n" "IO_CELLS_JIC3V_BT4PC_cmos_sch"
"I19n I5n" "IO_CELLS_JIC3V_GNDPADPC_cmos_sch"
"I21n I3n" "IO_CELLS_JIC3V_VDDPADPC_cmos_sch"
"I26n" "IO_CELLS_JIC3V_APR00DPC_cmos_sch"
"I27n" "IO_CELLS_JIC3V_APR04DPC_cmos_sch"
"I28n" "HV_CELLS_HVDD4DJ5PKFs_schematic"
"I33n" "HV_CELLS_HVD4SJD1R5PKFs_schematic"
"I36n" "HV_CELLS_HVDD4D2PK_schematic"
"I39n I40n" "IO_CELLS_JIC3V_CORNERESDPC_cmos_sch"
"I4n" "IO_CELLS_JIC3V_PSUBPADPC_cmos_sch"
