HEADER
"PSFversion" "1.00"
"Av" "(FUNCTION or(mappedRoot(\".1@index\") mappedRoot(\".A\")))v"
"Av" ".Av"
"Av" ".\\1 v"
"ENv" "(FUNCTION or(mappedRoot(\".2@index\") mappedRoot(\".EN\")))v"
"ENv" ".ENv"
"ENv" ".\\2 v"
"GNDIv" "(FUNCTION or(mappedRoot(\".3@index\") mappedRoot(\".GNDI\")))v"
"GNDIv" ".GNDIv"
"GNDIv" ".\\3 v"
"GNDOIv" "(FUNCTION or(mappedRoot(\".4@index\") mappedRoot(\".GNDOI\")))v"
"GNDOIv" ".GNDOIv"
"GNDOIv" ".\\4 v"
"GNDRIv" "(FUNCTION or(mappedRoot(\".5@index\") mappedRoot(\".GNDRI\")))v"
"GNDRIv" ".GNDRIv"
"GNDRIv" ".\\5 v"
"PADv" "(FUNCTION or(mappedRoot(\".6@index\") mappedRoot(\".PAD\")))v"
"PADv" ".PADv"
"PADv" ".\\6 v"
"PSUBv" "(FUNCTION or(mappedRoot(\".7@index\") mappedRoot(\".PSUB\")))v"
"PSUBv" ".PSUBv"
"PSUBv" ".\\7 v"
"VDD3Iv" "(FUNCTION or(mappedRoot(\".8@index\") mappedRoot(\".VDD3I\")))v"
"VDD3Iv" ".VDD3Iv"
"VDD3Iv" ".\\8 v"
"VDDOIv" "(FUNCTION or(mappedRoot(\".9@index\") mappedRoot(\".VDDOI\")))v"
"VDDOIv" ".VDDOIv"
"VDDOIv" ".\\9 v"
"VDDRIv" "(FUNCTION or(mappedRoot(\".10@index\") mappedRoot(\".VDDRI\")))v"
"VDDRIv" ".VDDRIv"
"VDDRIv" ".\\10 v"
"i0n i1n i2n i3n" "VLG_PRIMITIVES_check_gnd_verilogams"
"i4n i5n i6n" "VLG_PRIMITIVES_check_vdd_verilogams"
"i8n i9n" "VLG_PRIMITIVES_check_buf_functional"
