HEADER
"PSFversion" "1.00"
"PLUSv" ":1v"
"MINUSv" ":2v"
"(op ?)p" "i v pwr cap capp"
"(op i)p" "OP( mappedRoot(\".d1\") \"i\")"
"(op v)p" "OP( mappedRoot(\".d1\") \"v\")"
"(op pwr)p" "OP( mappedRoot(\".d1\") \"pwr\")"
"(op cap)p" "OP( mappedRoot(\".d1\") \"cap\")"
"(op capp)p" "OP( mappedRoot(\".d1\") \"capp\")"
"(mp ?)p" "is n rs cjo cjsw"
"(mp is)p" "MP( mappedRoot(\".d1\") \"is\")"
"(mp n)p" "MP( mappedRoot(\".d1\") \"n\")"
"(mp rs)p" "MP( mappedRoot(\".d1\") \"rs\")"
"(mp cjo)p" "MP( mappedRoot(\".d1\") \"cjo\")"
"(mp cjsw)p" "MP( mappedRoot(\".d1\") \"cjsw\")"
"(opt ?)p" "i v pwr cap capp"
"(opt i)p" "OPT( mappedRoot(\".d1\") \"i\")"
"(opt v)p" "OPT( mappedRoot(\".d1\") \"v\")"
"(opt pwr)p" "OPT( mappedRoot(\".d1\") \"pwr\")"
"(opt cap)p" "OPT( mappedRoot(\".d1\") \"cap\")"
"(opt capp)p" "OPT( mappedRoot(\".d1\") \"capp\")"
