HEADER
"PSFversion" "1.00"
"M0n" "PRIMLIB_nedia_spectre"
"R0n" "PRIMLIB_rpp1k1_3_spectre"
"GNDHVv" ":1v"
"INv" ":2v"
"OUTv" ":3v"
"VDDHVv" ":4v"
"VSUBv" ":5v"
