HEADER
"PSFversion" "1.00"
"GNDOv" "(FUNCTION or(mappedRoot(\".1@index\") mappedRoot(\".GNDO\")))v"
"GNDOv" ".GNDOv"
"GNDOv" ".\\1 v"
"VDDv" "(FUNCTION or(mappedRoot(\".3@index\") mappedRoot(\".VDD\")))v"
"VDDv" ".VDDv"
"VDDv" ".\\3 v"
"IGNDv" "(FUNCTION or(mappedRoot(\".2@index\") mappedRoot(\".IGND\")))v"
"IGNDv" ".IGNDv"
"IGNDv" ".\\2 v"
