HEADER
"PSFversion" "1.00"
"design" "(\"CHARACTERIZATION\" \"DC_BIAS_NMOS_3\" \"schematic\" \"\")"
"simulator" "spectre"
"temperature" "27"
"host" ""
"date" "Feb 18 11:52:02 2024"
"title" ""
"analysisList" "()"
END
