HEADER
"PSFversion" "1.00"
"design" "(\"TOP\" \"top_tb\" \"config_gate\" \"\")"
"simulator" "ams"
"temperature" "27"
"host" ""
"date" "Feb  9 04:56:13 2024"
"title" ""
"analysisList" "()"
END
