HEADER
"PSFversion" "1.00"
"Subv" "(FUNCTION or(mappedRoot(\".3@index\") mappedRoot(\".Sub\")))v"
"Subv" ".Subv"
"Subv" ".\\3 v"
"A_lv" "(FUNCTION or(mappedRoot(\".1@index\") mappedRoot(\".A_l\")))v"
"A_lv" ".A_lv"
"A_lv" ".\\1 v"
"K_hv" "(FUNCTION or(mappedRoot(\".2@index\") mappedRoot(\".K_h\")))v"
"K_hv" ".K_hv"
"K_hv" ".\\2 v"
"I1n" "HV_CELLS_ioh_pmbsabhv_2000_schematic"
"I5n" "HV_CELLS_ioh_pe3isabhv_2800gcr_schematic"
