HEADER
"PSFversion" "1.00"
"GNDIv" "(FUNCTION or(mappedRoot(\".1@index\") mappedRoot(\".GNDI\")))v"
"GNDIv" ".GNDIv"
"GNDIv" ".\\1 v"
"GNDOIv" "(FUNCTION or(mappedRoot(\".2@index\") mappedRoot(\".GNDOI\")))v"
"GNDOIv" ".GNDOIv"
"GNDOIv" ".\\2 v"
"GNDRIv" "(FUNCTION or(mappedRoot(\".3@index\") mappedRoot(\".GNDRI\")))v"
"GNDRIv" ".GNDRIv"
"GNDRIv" ".\\3 v"
"PADv" "(FUNCTION or(mappedRoot(\".4@index\") mappedRoot(\".PAD\")))v"
"PADv" ".PADv"
"PADv" ".\\4 v"
"PSUBv" "(FUNCTION or(mappedRoot(\".5@index\") mappedRoot(\".PSUB\")))v"
"PSUBv" ".PSUBv"
"PSUBv" ".\\5 v"
"VDD3Iv" "(FUNCTION or(mappedRoot(\".6@index\") mappedRoot(\".VDD3I\")))v"
"VDD3Iv" ".VDD3Iv"
"VDD3Iv" ".\\6 v"
"VDDOIv" "(FUNCTION or(mappedRoot(\".7@index\") mappedRoot(\".VDDOI\")))v"
"VDDOIv" ".VDDOIv"
"VDDOIv" ".\\7 v"
"VDDRIv" "(FUNCTION or(mappedRoot(\".8@index\") mappedRoot(\".VDDRI\")))v"
"VDDRIv" ".VDDRIv"
"VDDRIv" ".\\8 v"
"Yv" "(FUNCTION or(mappedRoot(\".9@index\") mappedRoot(\".Y\")))v"
"Yv" ".Yv"
"Yv" ".\\9 v"
"R_SERIESn" "VLG_PRIMITIVES_resistor_ams_verilogams"
