HEADER
"PSFversion" "1.00"
"__NEXT_FILE__" "TOP_top_tb_schematic"
