HEADER
"PSFversion" "1.00"
"Av" ".Av"
"Bv" ".Bv"
"Cv" ".Cv"
"Qv" ".Qv"
