HEADER
"PSFversion" "1.00"
"Av" "(FUNCTION or(mappedRoot(\".1@index\") mappedRoot(\".A\")))v"
"Av" ".Av"
"Av" ".\\1 v"
"Kv" "(FUNCTION or(mappedRoot(\".2@index\") mappedRoot(\".K\")))v"
"Kv" ".Kv"
"Kv" ".\\2 v"
"Subv" "(FUNCTION or(mappedRoot(\".3@index\") mappedRoot(\".Sub\")))v"
"Subv" ".Subv"
"Subv" ".\\3 v"
"D0n" "PRIMLIB_dnw3_spectre"
"D1n" "PRIMLIB_dp3_spectre"
