HEADER
"PSFversion" "1.00"
"V1n" "analogLib_vdc_spectre"
"I0n" "analogLib_idc_spectre"
"E0n" "analogLib_vcvs_spectre"
"R1n R0n" "analogLib_res_spectre"
"C1n C0n" "analogLib_cap_spectre"
"IPRB0n" "analogLib_iprobe_spectre"
"I3n" "analogLib_isin_spectre"
"M0n" "PRIMLIB_ne3_spectre"
