HEADER
"PSFversion" "1.00"
"K_hv" "(FUNCTION or(mappedRoot(\".2@index\") mappedRoot(\".K_h\")))v"
"K_hv" ".K_hv"
"K_hv" ".\\2 v"
"A_lv" "(FUNCTION or(mappedRoot(\".1@index\") mappedRoot(\".A_l\")))v"
"A_lv" ".A_lv"
"A_lv" ".\\1 v"
"Subv" "(FUNCTION or(mappedRoot(\".3@index\") mappedRoot(\".Sub\")))v"
"Subv" ".Subv"
"Subv" ".\\3 v"
"I0n I1n I2n" "HV_CELLS_ioh_dhpw_2x100_schematic"
