HEADER
"PSFversion" "1.00"
"GNDI1v" ".GNDI1v"
"GNDI2v" ".GNDI2v"
"GNDOI1v" ".GNDOI1v"
"GNDOI2v" ".GNDOI2v"
"GNDRI1v" ".GNDRI1v"
"GNDRI2v" ".GNDRI2v"
"PSUBv" ".PSUBv"
"VDD3I1v" ".VDD3I1v"
"VDD3I2v" ".VDD3I2v"
"VDDOI1v" ".VDDOI1v"
"VDDOI2v" ".VDDOI2v"
"VDDRI1v" ".VDDRI1v"
"VDDRI2v" ".VDDRI2v"
