HEADER
"PSFversion" "1.00"
"Subv" "(FUNCTION or(mappedRoot(\".3@index\") mappedRoot(\".Sub\")))v"
"Subv" ".Subv"
"Subv" ".\\3 v"
"SBv" "(FUNCTION or(mappedRoot(\".2@index\") mappedRoot(\".SB\")))v"
"SBv" ".SBv"
"SBv" ".\\2 v"
"Dv" "(FUNCTION or(mappedRoot(\".1@index\") mappedRoot(\".D\")))v"
"Dv" ".Dv"
"Dv" ".\\1 v"
"MD<1>v" "MD_1v"
"MD<10>v" "MD_10v"
"MD<11>v" "MD_11v"
"MD<12>v" "MD_12v"
"MD<13>v" "MD_13v"
"MD<14>v" "MD_14v"
"MD<15>v" "MD_15v"
"MD<16>v" "MD_16v"
"MD<17>v" "MD_17v"
"MD<18>v" "MD_18v"
"MD<19>v" "MD_19v"
"MD<2>v" "MD_2v"
"MD<20>v" "MD_20v"
"MD<21>v" "MD_21v"
"MD<22>v" "MD_22v"
"MD<23>v" "MD_23v"
"MD<24>v" "MD_24v"
"MD<25>v" "MD_25v"
"MD<26>v" "MD_26v"
"MD<27>v" "MD_27v"
"MD<28>v" "MD_28v"
"MD<29>v" "MD_29v"
"MD<3>v" "MD_3v"
"MD<30>v" "MD_30v"
"MD<31>v" "MD_31v"
"MD<32>v" "MD_32v"
"MD<33>v" "MD_33v"
"MD<34>v" "MD_34v"
"MD<35>v" "MD_35v"
"MD<4>v" "MD_4v"
"MD<5>v" "MD_5v"
"MD<6>v" "MD_6v"
"MD<7>v" "MD_7v"
"MD<8>v" "MD_8v"
"MD<9>v" "MD_9v"
"MP<10>v" "MP_10v"
"MP<11>v" "MP_11v"
"MP<12>v" "MP_12v"
"MP<13>v" "MP_13v"
"MP<14>v" "MP_14v"
"MP<15>v" "MP_15v"
"MP<16>v" "MP_16v"
"MP<17>v" "MP_17v"
"MP<18>v" "MP_18v"
"MP<19>v" "MP_19v"
"MP<1>v" "MP_1v"
"MP<20>v" "MP_20v"
"MP<21>v" "MP_21v"
"MP<22>v" "MP_22v"
"MP<23>v" "MP_23v"
"MP<24>v" "MP_24v"
"MP<25>v" "MP_25v"
"MP<26>v" "MP_26v"
"MP<27>v" "MP_27v"
"MP<28>v" "MP_28v"
"MP<29>v" "MP_29v"
"MP<2>v" "MP_2v"
"MP<30>v" "MP_30v"
"MP<31>v" "MP_31v"
"MP<32>v" "MP_32v"
"MP<33>v" "MP_33v"
"MP<34>v" "MP_34v"
"MP<35>v" "MP_35v"
"MP<36>v" "MP_36v"
"MP<37>v" "MP_37v"
"MP<38>v" "MP_38v"
"MP<39>v" "MP_39v"
"MP<3>v" "MP_3v"
"MP<40>v" "MP_40v"
"MP<41>v" "MP_41v"
"MP<42>v" "MP_42v"
"MP<43>v" "MP_43v"
"MP<44>v" "MP_44v"
"MP<45>v" "MP_45v"
"MP<46>v" "MP_46v"
"MP<47>v" "MP_47v"
"MP<48>v" "MP_48v"
"MP<49>v" "MP_49v"
"MP<4>v" "MP_4v"
"MP<50>v" "MP_50v"
"MP<51>v" "MP_51v"
"MP<52>v" "MP_52v"
"MP<53>v" "MP_53v"
"MP<54>v" "MP_54v"
"MP<55>v" "MP_55v"
"MP<56>v" "MP_56v"
"MP<57>v" "MP_57v"
"MP<58>v" "MP_58v"
"MP<59>v" "MP_59v"
"MP<5>v" "MP_5v"
"MP<60>v" "MP_60v"
"MP<61>v" "MP_61v"
"MP<62>v" "MP_62v"
"MP<63>v" "MP_63v"
"MP<64>v" "MP_64v"
"MP<65>v" "MP_65v"
"MP<66>v" "MP_66v"
"MP<67>v" "MP_67v"
"MP<68>v" "MP_68v"
"MP<69>v" "MP_69v"
"MP<6>v" "MP_6v"
"MP<70>v" "MP_70v"
"MP<7>v" "MP_7v"
"MP<8>v" "MP_8v"
"MP<9>v" "MP_9v"
"D0n" "PRIMLIB_ddnw_spectre"
"MD<10>n MD<11>n MD<12>n MD<13>n MD<14>n MD<15>n MD<16>n MD<17>n MD<18>n MD<19>n MD<1>n MD<20>n MD<21>n MD<22>n MD<23>n MD<24>n MD<25>n MD<26>n MD<27>n MD<28>n MD<29>n MD<2>n MD<30>n MD<31>n MD<32>n MD<33>n MD<34>n MD<35>n MD<3>n MD<4>n MD<5>n MD<6>n MD<7>n MD<8>n MD<9>n" "PRIMLIB_dp3_spectre"
"R0n" "PRIMLIB_rnp1_spectre"
"MP<10>n MP<11>n MP<12>n MP<13>n MP<14>n MP<15>n MP<16>n MP<17>n MP<18>n MP<19>n MP<1>n MP<20>n MP<21>n MP<22>n MP<23>n MP<24>n MP<25>n MP<26>n MP<27>n MP<28>n MP<29>n MP<2>n MP<30>n MP<31>n MP<32>n MP<33>n MP<34>n MP<35>n MP<36>n MP<37>n MP<38>n MP<39>n MP<3>n MP<40>n MP<41>n MP<42>n MP<43>n MP<44>n MP<45>n MP<46>n MP<47>n MP<48>n MP<49>n MP<4>n MP<50>n MP<51>n MP<52>n MP<53>n MP<54>n MP<55>n MP<56>n MP<57>n MP<58>n MP<59>n MP<5>n MP<60>n MP<61>n MP<62>n MP<63>n MP<64>n MP<65>n MP<66>n MP<67>n MP<68>n MP<69>n MP<6>n MP<70>n MP<7>n MP<8>n MP<9>n" "HV_CELLS_ioh_pe3isab_15_04_schematic"
