HEADER
"PSFversion" "1.00"
"Time Stamp" "Feb 18 12:35:03 2024"
TYPE
"variable" STRUCT(
"value" FLOAT DOUBLE
) PROP( "key" "element" )
VALUE
"VGS" "variable" ( 12.5 ) PROP( )
"VDS" "variable" ( 1 ) PROP( )
"NF" "variable" ( 1 ) PROP( )
"WF" "variable" ( 100e-6 ) PROP( )
"temperature" "variable" ( 27 ) PROP( )
"temp" "variable" ( 27 ) PROP( )
END
