HEADER
"PSFversion" "1.00"
"design" "(\"CHARACTERIZATION\" \"DC_BIAS_NMOS_HV\" \"schematic\" \"\")"
"simulator" "spectre"
"temperature" "27"
"host" ""
"date" "Feb 18 12:53:50 2024"
"title" ""
"analysisList" "()"
END
