HEADER
"PSFversion" "1.00"
"clkv" ".clkv"
"enablev" ".enablev"
"resetv" ".resetv"
