HEADER
"PSFversion" "1.00"
"GNDOIv" ".GNDOIv"
"VDDORIv" ".VDDORIv"
"GNDIv" ".GNDIv"
"VDD3Iv" ".VDD3Iv"
"GNDRIv" ".GNDRIv"
"PSUBv" ".PSUBv"
