HEADER
"PSFversion" "1.00"
"GNDv" "(FUNCTION or(mappedRoot(\".1@index\") mappedRoot(\".GND\")))v"
"GNDv" ".GNDv"
"GNDv" ".\\1 v"
"PADv" "(FUNCTION or(mappedRoot(\".2@index\") mappedRoot(\".PAD\")))v"
"PADv" ".PADv"
"PADv" ".\\2 v"
