HEADER
"PSFversion" "1.00"
"outv" "(FUNCTION or(mappedRoot(\".1@index\") mappedRoot(\".out\")))v"
"outv" ".outv"
"outv" ".\\1 v"
"av" "(FUNCTION or(mappedRoot(\".2@index\") mappedRoot(\".a\")))v"
"av" ".av"
"av" ".\\2 v"
"bv" "(FUNCTION or(mappedRoot(\".3@index\") mappedRoot(\".b\")))v"
"bv" ".bv"
"bv" ".\\3 v"
"cv" "(FUNCTION or(mappedRoot(\".4@index\") mappedRoot(\".c\")))v"
"cv" ".cv"
"cv" ".\\4 v"
"dv" "(FUNCTION or(mappedRoot(\".5@index\") mappedRoot(\".d\")))v"
"dv" ".dv"
"dv" ".\\5 v"
"gnd3iv" ".gnd3iv"
"vdd3iv" ".vdd3iv"
"MN1n MN2n MN3n MN4n" "PRIMLIB_ne3i_spectre"
"MP1n MP2n MP3n MP4n" "PRIMLIB_pe3i_spectre"
