HEADER
"PSFversion" "1.00"
"PIv" "(FUNCTION or(mappedRoot(\".5@index\") mappedRoot(\".PI\")))v"
"PIv" ".PIv"
"PIv" ".\\5 v"
"POv" "(FUNCTION or(mappedRoot(\".1@index\") mappedRoot(\".PO\")))v"
"POv" ".POv"
"POv" ".\\1 v"
"GNDRv" "(FUNCTION or(mappedRoot(\".4@index\") mappedRoot(\".GNDR\")))v"
"GNDRv" ".GNDRv"
"GNDRv" ".\\4 v"
"VDDRv" "(FUNCTION or(mappedRoot(\".7@index\") mappedRoot(\".VDDR\")))v"
"VDDRv" ".VDDRv"
"VDDRv" ".\\7 v"
"GNDv" "(FUNCTION or(mappedRoot(\".3@index\") mappedRoot(\".GND\")))v"
"GNDv" ".GNDv"
"GNDv" ".\\3 v"
"VDDv" "(FUNCTION or(mappedRoot(\".6@index\") mappedRoot(\".VDD\")))v"
"VDDv" ".VDDv"
"VDDv" ".\\6 v"
"YNv" "(FUNCTION or(mappedRoot(\".8@index\") mappedRoot(\".YN\")))v"
"YNv" ".YNv"
"YNv" ".\\8 v"
"Yv" "(FUNCTION or(mappedRoot(\".2@index\") mappedRoot(\".Y\")))v"
"Yv" ".Yv"
"Yv" ".\\2 v"
"M1n M11n M3n M5n M7n M9n" "PRIMLIB_pe3i_spectre"
"M10n M13n M2n M4n M6n M8n" "PRIMLIB_ne3i_spectre"
