HEADER
"PSFversion" "1.00"
"GNDOv" "(FUNCTION or(mappedRoot(\".5@index\") mappedRoot(\".GNDO\")))v"
"GNDOv" ".GNDOv"
"GNDOv" ".\\5 v"
"GNDv" "(FUNCTION or(mappedRoot(\".4@index\") mappedRoot(\".GND\")))v"
"GNDv" ".GNDv"
"GNDv" ".\\4 v"
"VDDOv" "(FUNCTION or(mappedRoot(\".8@index\") mappedRoot(\".VDDO\")))v"
"VDDOv" ".VDDOv"
"VDDOv" ".\\8 v"
"Av" "(FUNCTION or(mappedRoot(\".2@index\") mappedRoot(\".A\")))v"
"Av" ".Av"
"Av" ".\\2 v"
"ENv" "(FUNCTION or(mappedRoot(\".3@index\") mappedRoot(\".EN\")))v"
"ENv" ".ENv"
"ENv" ".\\3 v"
"VDNv" "(FUNCTION or(mappedRoot(\".9@index\") mappedRoot(\".VDN\")))v"
"VDNv" ".VDNv"
"VDNv" ".\\9 v"
"PSUBv" "(FUNCTION or(mappedRoot(\".6@index\") mappedRoot(\".PSUB\")))v"
"PSUBv" ".PSUBv"
"PSUBv" ".\\6 v"
"VDDv" "(FUNCTION or(mappedRoot(\".7@index\") mappedRoot(\".VDD\")))v"
"VDDv" ".VDDv"
"VDDv" ".\\7 v"
"PADv" "(FUNCTION or(mappedRoot(\".1@index\") mappedRoot(\".PAD\")))v"
"PADv" ".PADv"
"PADv" ".\\1 v"
"IN2<1>v" "IN2_1v"
"IN2<2>v" "IN2_2v"
"IN3<10>v" "IN3_10v"
"IN3<11>v" "IN3_11v"
"IN3<12>v" "IN3_12v"
"IN3<13>v" "IN3_13v"
"IN3<14>v" "IN3_14v"
"IN3<15>v" "IN3_15v"
"IN3<16>v" "IN3_16v"
"IN3<17>v" "IN3_17v"
"IN3<18>v" "IN3_18v"
"IN3<19>v" "IN3_19v"
"IN3<1>v" "IN3_1v"
"IN3<20>v" "IN3_20v"
"IN3<21>v" "IN3_21v"
"IN3<2>v" "IN3_2v"
"IN3<3>v" "IN3_3v"
"IN3<4>v" "IN3_4v"
"IN3<5>v" "IN3_5v"
"IN3<6>v" "IN3_6v"
"IN3<7>v" "IN3_7v"
"IN3<8>v" "IN3_8v"
"IN3<9>v" "IN3_9v"
"IP1<1>v" "IP1_1v"
"IP1<2>v" "IP1_2v"
"IP1<3>v" "IP1_3v"
"IP2<1>v" "IP2_1v"
"IP2<2>v" "IP2_2v"
"IP2<3>v" "IP2_3v"
"IP3<10>v" "IP3_10v"
"IP3<11>v" "IP3_11v"
"IP3<12>v" "IP3_12v"
"IP3<13>v" "IP3_13v"
"IP3<14>v" "IP3_14v"
"IP3<15>v" "IP3_15v"
"IP3<16>v" "IP3_16v"
"IP3<17>v" "IP3_17v"
"IP3<18>v" "IP3_18v"
"IP3<1>v" "IP3_1v"
"IP3<2>v" "IP3_2v"
"IP3<3>v" "IP3_3v"
"IP3<4>v" "IP3_4v"
"IP3<5>v" "IP3_5v"
"IP3<6>v" "IP3_6v"
"IP3<7>v" "IP3_7v"
"IP3<8>v" "IP3_8v"
"IP3<9>v" "IP3_9v"
"M0n" "PRIMLIB_ne3i_spectre"
"I1n" "IO_CELLS_JIC3V_jio_tsctrl_pc_cmos_sch"
"I2n" "IO_CELLS_JIC3V_jio_tp4_pc_cmos_sch"
"I3n" "IO_CELLS_JIC3V_jio_opdio_pc_cmos_sch"
"I5n" "IO_CELLS_JIC3V_jio_resp_pc_cmos_sch"
"IN1n IN2<1>n IN2<2>n IN3<10>n IN3<11>n IN3<12>n IN3<13>n IN3<14>n IN3<15>n IN3<16>n IN3<17>n IN3<18>n IN3<19>n IN3<1>n IN3<20>n IN3<21>n IN3<2>n IN3<3>n IN3<4>n IN3<5>n IN3<6>n IN3<7>n IN3<8>n IN3<9>n" "IO_CELLS_JIC3V_jio_ne3i_pc_cmos_sch"
"IP1<1>n IP1<2>n IP1<3>n IP2<1>n IP2<2>n IP2<3>n IP3<10>n IP3<11>n IP3<12>n IP3<13>n IP3<14>n IP3<15>n IP3<16>n IP3<17>n IP3<18>n IP3<1>n IP3<2>n IP3<3>n IP3<4>n IP3<5>n IP3<6>n IP3<7>n IP3<8>n IP3<9>n" "IO_CELLS_JIC3V_jio_pe3i_pc_cmos_sch"
