HEADER
"PSFversion" "1.00"
"Time Stamp" "Feb  9 03:15:34 2024"
TYPE
"variable" STRUCT(
"value" FLOAT DOUBLE
) PROP( "key" "element" )
VALUE
"temp" "variable" ( 27 ) PROP( )
END
