HEADER
"PSFversion" "1.00"
"ENABLEv" "(FUNCTION or(mappedRoot(\".2@index\") mappedRoot(\".ENABLE\")))v"
"ENABLEv" ".ENABLEv"
"ENABLEv" ".\\2 v"
"CLKv" "(FUNCTION or(mappedRoot(\".1@index\") mappedRoot(\".CLK\")))v"
"CLKv" ".CLKv"
"CLKv" ".\\1 v"
"RESETv" "(FUNCTION or(mappedRoot(\".16@index\") mappedRoot(\".RESET\")))v"
"RESETv" ".RESETv"
"RESETv" ".\\16 v"
"OUT0v" "(FUNCTION or(mappedRoot(\".10@index\") mappedRoot(\".OUT0\")))v"
"OUT0v" ".OUT0v"
"OUT0v" ".\\10 v"
"OUT1v" "(FUNCTION or(mappedRoot(\".11@index\") mappedRoot(\".OUT1\")))v"
"OUT1v" ".OUT1v"
"OUT1v" ".\\11 v"
"OUT2v" "(FUNCTION or(mappedRoot(\".12@index\") mappedRoot(\".OUT2\")))v"
"OUT2v" ".OUT2v"
"OUT2v" ".\\12 v"
"INLv" "(FUNCTION or(mappedRoot(\".9@index\") mappedRoot(\".INL\")))v"
"INLv" ".INLv"
"INLv" ".\\9 v"
"OUTLv" "(FUNCTION or(mappedRoot(\".14@index\") mappedRoot(\".OUTL\")))v"
"OUTLv" ".OUTLv"
"OUTLv" ".\\14 v"
"OUTHVv" "(FUNCTION or(mappedRoot(\".13@index\") mappedRoot(\".OUTHV\")))v"
"OUTHVv" ".OUTHVv"
"OUTHVv" ".\\13 v"
"VDDDv" "(FUNCTION or(mappedRoot(\".18@index\") mappedRoot(\".VDDD\")))v"
"VDDDv" ".VDDDv"
"VDDDv" ".\\18 v"
"VDDORv" "(FUNCTION or(mappedRoot(\".20@index\") mappedRoot(\".VDDOR\")))v"
"VDDORv" ".VDDORv"
"VDDORv" ".\\20 v"
"VDDAv" "(FUNCTION or(mappedRoot(\".17@index\") mappedRoot(\".VDDA\")))v"
"VDDAv" ".VDDAv"
"VDDAv" ".\\17 v"
"VDDORAv" "(FUNCTION or(mappedRoot(\".21@index\") mappedRoot(\".VDDORA\")))v"
"VDDORAv" ".VDDORAv"
"VDDORAv" ".\\21 v"
"PSUBv" "(FUNCTION or(mappedRoot(\".15@index\") mappedRoot(\".PSUB\")))v"
"PSUBv" ".PSUBv"
"PSUBv" ".\\15 v"
"GNDDv" "(FUNCTION or(mappedRoot(\".4@index\") mappedRoot(\".GNDD\")))v"
"GNDDv" ".GNDDv"
"GNDDv" ".\\4 v"
"GNDORv" "(FUNCTION or(mappedRoot(\".7@index\") mappedRoot(\".GNDOR\")))v"
"GNDORv" ".GNDORv"
"GNDORv" ".\\7 v"
"GNDAv" "(FUNCTION or(mappedRoot(\".3@index\") mappedRoot(\".GNDA\")))v"
"GNDAv" ".GNDAv"
"GNDAv" ".\\3 v"
"GNDORAv" "(FUNCTION or(mappedRoot(\".8@index\") mappedRoot(\".GNDORA\")))v"
"GNDORAv" ".GNDORAv"
"GNDORAv" ".\\8 v"
"GNDHVv" "(FUNCTION or(mappedRoot(\".5@index\") mappedRoot(\".GNDHV\")))v"
"GNDHVv" ".GNDHVv"
"GNDHVv" ".\\5 v"
"GNDOHVv" "(FUNCTION or(mappedRoot(\".6@index\") mappedRoot(\".GNDOHV\")))v"
"GNDOHVv" ".GNDOHVv"
"GNDOHVv" ".\\6 v"
"VDDHVv" "(FUNCTION or(mappedRoot(\".19@index\") mappedRoot(\".VDDHV\")))v"
"VDDHVv" ".VDDHVv"
"VDDHVv" ".\\19 v"
