HEADER
"PSFversion" "1.00"
"Run Generator" "drlRun rev. 1.0"
"Run Time Stamp" "Feb 18 11:06:23 2024"
"date" "Feb 18 11:06:23 2024"
"simulator" "spectre"
"netlistDir" "../netlist"
"axlParamFlag" "true"
 "externalSweepVariableCount" 1
TYPE
"runObject" STRUCT(
"logName" ARRAY( * ) STRING *
"parent" STRING *
"sweepVariable" ARRAY( * ) STRING *
) PROP( "key" "runObject" )
VALUE
"Root" "runObject" (
("")
""
("VDS")
)
"VDS=0.0" "runObject" (
(
"../../../1/CHARACTERIZATION:DC_BIAS_NMOS:VGS/psf/logFile"
"../../../1/CHARACTERIZATION:DC_BIAS_NMOS:VGS/psf/artistLogFile"
)
"Root"
()
) PROP(
"#maeCorner" "nom"
 "#pointID" 1
"netlistDir" "../../../1/CHARACTERIZATION:DC_BIAS_NMOS:VGS/netlist"
"dataDir" "../../../1/CHARACTERIZATION:DC_BIAS_NMOS:VGS"
 "VDS" 0.000000e+00
)

"VDS=0.1" "runObject" (
(
"../../../2/CHARACTERIZATION:DC_BIAS_NMOS:VGS/psf/logFile"
"../../../2/CHARACTERIZATION:DC_BIAS_NMOS:VGS/psf/artistLogFile"
)
"Root"
()
) PROP(
"#maeCorner" "nom"
 "#pointID" 2
"netlistDir" "../../../2/CHARACTERIZATION:DC_BIAS_NMOS:VGS/netlist"
"dataDir" "../../../2/CHARACTERIZATION:DC_BIAS_NMOS:VGS"
 "VDS" 1.000000e-01
)

"VDS=0.2" "runObject" (
(
"../../../3/CHARACTERIZATION:DC_BIAS_NMOS:VGS/psf/logFile"
"../../../3/CHARACTERIZATION:DC_BIAS_NMOS:VGS/psf/artistLogFile"
)
"Root"
()
) PROP(
"#maeCorner" "nom"
 "#pointID" 3
"netlistDir" "../../../3/CHARACTERIZATION:DC_BIAS_NMOS:VGS/netlist"
"dataDir" "../../../3/CHARACTERIZATION:DC_BIAS_NMOS:VGS"
 "VDS" 2.000000e-01
)

"VDS=0.3" "runObject" (
(
"../../../4/CHARACTERIZATION:DC_BIAS_NMOS:VGS/psf/logFile"
"../../../4/CHARACTERIZATION:DC_BIAS_NMOS:VGS/psf/artistLogFile"
)
"Root"
()
) PROP(
"#maeCorner" "nom"
 "#pointID" 4
"netlistDir" "../../../4/CHARACTERIZATION:DC_BIAS_NMOS:VGS/netlist"
"dataDir" "../../../4/CHARACTERIZATION:DC_BIAS_NMOS:VGS"
 "VDS" 3.000000e-01
)

"VDS=0.4" "runObject" (
(
"../../../5/CHARACTERIZATION:DC_BIAS_NMOS:VGS/psf/logFile"
"../../../5/CHARACTERIZATION:DC_BIAS_NMOS:VGS/psf/artistLogFile"
)
"Root"
()
) PROP(
"#maeCorner" "nom"
 "#pointID" 5
"netlistDir" "../../../5/CHARACTERIZATION:DC_BIAS_NMOS:VGS/netlist"
"dataDir" "../../../5/CHARACTERIZATION:DC_BIAS_NMOS:VGS"
 "VDS" 4.000000e-01
)

"VDS=0.5" "runObject" (
(
"../../../6/CHARACTERIZATION:DC_BIAS_NMOS:VGS/psf/logFile"
"../../../6/CHARACTERIZATION:DC_BIAS_NMOS:VGS/psf/artistLogFile"
)
"Root"
()
) PROP(
"#maeCorner" "nom"
 "#pointID" 6
"netlistDir" "../../../6/CHARACTERIZATION:DC_BIAS_NMOS:VGS/netlist"
"dataDir" "../../../6/CHARACTERIZATION:DC_BIAS_NMOS:VGS"
 "VDS" 5.000000e-01
)

"VDS=0.6" "runObject" (
(
"../../../7/CHARACTERIZATION:DC_BIAS_NMOS:VGS/psf/logFile"
"../../../7/CHARACTERIZATION:DC_BIAS_NMOS:VGS/psf/artistLogFile"
)
"Root"
()
) PROP(
"#maeCorner" "nom"
 "#pointID" 7
"netlistDir" "../../../7/CHARACTERIZATION:DC_BIAS_NMOS:VGS/netlist"
"dataDir" "../../../7/CHARACTERIZATION:DC_BIAS_NMOS:VGS"
 "VDS" 6.000000e-01
)

"VDS=0.7000000000000001" "runObject" (
(
"../../../8/CHARACTERIZATION:DC_BIAS_NMOS:VGS/psf/logFile"
"../../../8/CHARACTERIZATION:DC_BIAS_NMOS:VGS/psf/artistLogFile"
)
"Root"
()
) PROP(
"#maeCorner" "nom"
 "#pointID" 8
"netlistDir" "../../../8/CHARACTERIZATION:DC_BIAS_NMOS:VGS/netlist"
"dataDir" "../../../8/CHARACTERIZATION:DC_BIAS_NMOS:VGS"
 "VDS" 7.000000e-01
)

"VDS=0.8" "runObject" (
(
"../../../9/CHARACTERIZATION:DC_BIAS_NMOS:VGS/psf/logFile"
"../../../9/CHARACTERIZATION:DC_BIAS_NMOS:VGS/psf/artistLogFile"
)
"Root"
()
) PROP(
"#maeCorner" "nom"
 "#pointID" 9
"netlistDir" "../../../9/CHARACTERIZATION:DC_BIAS_NMOS:VGS/netlist"
"dataDir" "../../../9/CHARACTERIZATION:DC_BIAS_NMOS:VGS"
 "VDS" 8.000000e-01
)

"VDS=0.9" "runObject" (
(
"../../../10/CHARACTERIZATION:DC_BIAS_NMOS:VGS/psf/logFile"
"../../../10/CHARACTERIZATION:DC_BIAS_NMOS:VGS/psf/artistLogFile"
)
"Root"
()
) PROP(
"#maeCorner" "nom"
 "#pointID" 10
"netlistDir" "../../../10/CHARACTERIZATION:DC_BIAS_NMOS:VGS/netlist"
"dataDir" "../../../10/CHARACTERIZATION:DC_BIAS_NMOS:VGS"
 "VDS" 9.000000e-01
)

"VDS=1.0" "runObject" (
(
"../../../11/CHARACTERIZATION:DC_BIAS_NMOS:VGS/psf/logFile"
"../../../11/CHARACTERIZATION:DC_BIAS_NMOS:VGS/psf/artistLogFile"
)
"Root"
()
) PROP(
"#maeCorner" "nom"
 "#pointID" 11
"netlistDir" "../../../11/CHARACTERIZATION:DC_BIAS_NMOS:VGS/netlist"
"dataDir" "../../../11/CHARACTERIZATION:DC_BIAS_NMOS:VGS"
 "VDS" 1.000000e+00
)

"VDS=1.1" "runObject" (
(
"../../../12/CHARACTERIZATION:DC_BIAS_NMOS:VGS/psf/logFile"
"../../../12/CHARACTERIZATION:DC_BIAS_NMOS:VGS/psf/artistLogFile"
)
"Root"
()
) PROP(
"#maeCorner" "nom"
 "#pointID" 12
"netlistDir" "../../../12/CHARACTERIZATION:DC_BIAS_NMOS:VGS/netlist"
"dataDir" "../../../12/CHARACTERIZATION:DC_BIAS_NMOS:VGS"
 "VDS" 1.100000e+00
)

"VDS=1.2" "runObject" (
(
"../../../13/CHARACTERIZATION:DC_BIAS_NMOS:VGS/psf/logFile"
"../../../13/CHARACTERIZATION:DC_BIAS_NMOS:VGS/psf/artistLogFile"
)
"Root"
()
) PROP(
"#maeCorner" "nom"
 "#pointID" 13
"netlistDir" "../../../13/CHARACTERIZATION:DC_BIAS_NMOS:VGS/netlist"
"dataDir" "../../../13/CHARACTERIZATION:DC_BIAS_NMOS:VGS"
 "VDS" 1.200000e+00
)

"VDS=1.3" "runObject" (
(
"../../../14/CHARACTERIZATION:DC_BIAS_NMOS:VGS/psf/logFile"
"../../../14/CHARACTERIZATION:DC_BIAS_NMOS:VGS/psf/artistLogFile"
)
"Root"
()
) PROP(
"#maeCorner" "nom"
 "#pointID" 14
"netlistDir" "../../../14/CHARACTERIZATION:DC_BIAS_NMOS:VGS/netlist"
"dataDir" "../../../14/CHARACTERIZATION:DC_BIAS_NMOS:VGS"
 "VDS" 1.300000e+00
)

END
