HEADER
"PSFversion" "1.00"
"I0n" "HV_CELLS_ioh_dnw3_16x60_schematic"
"I1n" "HV_CELLS_ioh_dp3_16x70_schematic"
