HEADER
"PSFversion" "1.00"
"Time Stamp" "Feb 17 09:49:45 2024"
TYPE
"variable" STRUCT(
"value" FLOAT DOUBLE
) PROP( "key" "element" )
VALUE
"IDS" "variable" ( 501.1872336e-6 ) PROP( )
"L" "variable" ( 350e-9 ) PROP( )
"NF" "variable" ( 1 ) PROP( )
"VDS" "variable" ( 1 ) PROP( )
"WF" "variable" ( 10e-6 ) PROP( )
"temperature" "variable" ( 27 ) PROP( )
"temp" "variable" ( 27 ) PROP( )
END
