HEADER
"PSFversion" "1.00"
"GSBv" "(FUNCTION or(mappedRoot(\".2@index\") mappedRoot(\".GSB\")))v"
"GSBv" ".GSBv"
"GSBv" ".\\2 v"
"Subv" "(FUNCTION or(mappedRoot(\".3@index\") mappedRoot(\".Sub\")))v"
"Subv" ".Subv"
"Subv" ".\\3 v"
"Dv" "(FUNCTION or(mappedRoot(\".1@index\") mappedRoot(\".D\")))v"
"Dv" ".Dv"
"Dv" ".\\1 v"
"D0<1>v" "D0_1v"
"D0<10>v" "D0_10v"
"D0<11>v" "D0_11v"
"D0<12>v" "D0_12v"
"D0<13>v" "D0_13v"
"D0<14>v" "D0_14v"
"D0<15>v" "D0_15v"
"D0<16>v" "D0_16v"
"D0<17>v" "D0_17v"
"D0<18>v" "D0_18v"
"D0<19>v" "D0_19v"
"D0<2>v" "D0_2v"
"D0<20>v" "D0_20v"
"D0<21>v" "D0_21v"
"D0<22>v" "D0_22v"
"D0<23>v" "D0_23v"
"D0<24>v" "D0_24v"
"D0<25>v" "D0_25v"
"D0<26>v" "D0_26v"
"D0<27>v" "D0_27v"
"D0<28>v" "D0_28v"
"D0<29>v" "D0_29v"
"D0<3>v" "D0_3v"
"D0<30>v" "D0_30v"
"D0<31>v" "D0_31v"
"D0<32>v" "D0_32v"
"D0<33>v" "D0_33v"
"D0<34>v" "D0_34v"
"D0<35>v" "D0_35v"
"D0<36>v" "D0_36v"
"D0<37>v" "D0_37v"
"D0<38>v" "D0_38v"
"D0<39>v" "D0_39v"
"D0<4>v" "D0_4v"
"D0<40>v" "D0_40v"
"D0<41>v" "D0_41v"
"D0<42>v" "D0_42v"
"D0<43>v" "D0_43v"
"D0<44>v" "D0_44v"
"D0<45>v" "D0_45v"
"D0<46>v" "D0_46v"
"D0<47>v" "D0_47v"
"D0<48>v" "D0_48v"
"D0<49>v" "D0_49v"
"D0<5>v" "D0_5v"
"D0<50>v" "D0_50v"
"D0<6>v" "D0_6v"
"D0<7>v" "D0_7v"
"D0<8>v" "D0_8v"
"D0<9>v" "D0_9v"
"R0<1>v" "R0_1v"
"R0<10>v" "R0_10v"
"R0<11>v" "R0_11v"
"R0<12>v" "R0_12v"
"R0<13>v" "R0_13v"
"R0<14>v" "R0_14v"
"R0<15>v" "R0_15v"
"R0<16>v" "R0_16v"
"R0<17>v" "R0_17v"
"R0<18>v" "R0_18v"
"R0<19>v" "R0_19v"
"R0<2>v" "R0_2v"
"R0<20>v" "R0_20v"
"R0<21>v" "R0_21v"
"R0<22>v" "R0_22v"
"R0<23>v" "R0_23v"
"R0<24>v" "R0_24v"
"R0<25>v" "R0_25v"
"R0<26>v" "R0_26v"
"R0<27>v" "R0_27v"
"R0<28>v" "R0_28v"
"R0<29>v" "R0_29v"
"R0<3>v" "R0_3v"
"R0<30>v" "R0_30v"
"R0<31>v" "R0_31v"
"R0<32>v" "R0_32v"
"R0<33>v" "R0_33v"
"R0<34>v" "R0_34v"
"R0<35>v" "R0_35v"
"R0<36>v" "R0_36v"
"R0<37>v" "R0_37v"
"R0<38>v" "R0_38v"
"R0<39>v" "R0_39v"
"R0<4>v" "R0_4v"
"R0<40>v" "R0_40v"
"R0<41>v" "R0_41v"
"R0<42>v" "R0_42v"
"R0<43>v" "R0_43v"
"R0<44>v" "R0_44v"
"R0<45>v" "R0_45v"
"R0<46>v" "R0_46v"
"R0<47>v" "R0_47v"
"R0<48>v" "R0_48v"
"R0<49>v" "R0_49v"
"R0<5>v" "R0_5v"
"R0<50>v" "R0_50v"
"R0<6>v" "R0_6v"
"R0<7>v" "R0_7v"
"R0<8>v" "R0_8v"
"R0<9>v" "R0_9v"
"MP<10>v" "MP_10v"
"MP<11>v" "MP_11v"
"MP<12>v" "MP_12v"
"MP<13>v" "MP_13v"
"MP<14>v" "MP_14v"
"MP<15>v" "MP_15v"
"MP<16>v" "MP_16v"
"MP<17>v" "MP_17v"
"MP<18>v" "MP_18v"
"MP<19>v" "MP_19v"
"MP<1>v" "MP_1v"
"MP<20>v" "MP_20v"
"MP<21>v" "MP_21v"
"MP<22>v" "MP_22v"
"MP<23>v" "MP_23v"
"MP<24>v" "MP_24v"
"MP<25>v" "MP_25v"
"MP<26>v" "MP_26v"
"MP<27>v" "MP_27v"
"MP<28>v" "MP_28v"
"MP<29>v" "MP_29v"
"MP<2>v" "MP_2v"
"MP<30>v" "MP_30v"
"MP<31>v" "MP_31v"
"MP<32>v" "MP_32v"
"MP<33>v" "MP_33v"
"MP<34>v" "MP_34v"
"MP<35>v" "MP_35v"
"MP<36>v" "MP_36v"
"MP<37>v" "MP_37v"
"MP<38>v" "MP_38v"
"MP<39>v" "MP_39v"
"MP<3>v" "MP_3v"
"MP<40>v" "MP_40v"
"MP<41>v" "MP_41v"
"MP<42>v" "MP_42v"
"MP<43>v" "MP_43v"
"MP<44>v" "MP_44v"
"MP<45>v" "MP_45v"
"MP<46>v" "MP_46v"
"MP<47>v" "MP_47v"
"MP<48>v" "MP_48v"
"MP<49>v" "MP_49v"
"MP<4>v" "MP_4v"
"MP<50>v" "MP_50v"
"MP<5>v" "MP_5v"
"MP<6>v" "MP_6v"
"MP<7>v" "MP_7v"
"MP<8>v" "MP_8v"
"MP<9>v" "MP_9v"
"D0<10>n D0<11>n D0<12>n D0<13>n D0<14>n D0<15>n D0<16>n D0<17>n D0<18>n D0<19>n D0<1>n D0<20>n D0<21>n D0<22>n D0<23>n D0<24>n D0<25>n D0<26>n D0<27>n D0<28>n D0<29>n D0<2>n D0<30>n D0<31>n D0<32>n D0<33>n D0<34>n D0<35>n D0<36>n D0<37>n D0<38>n D0<39>n D0<3>n D0<40>n D0<41>n D0<42>n D0<43>n D0<44>n D0<45>n D0<46>n D0<47>n D0<48>n D0<49>n D0<4>n D0<50>n D0<5>n D0<6>n D0<7>n D0<8>n D0<9>n" "PRIMLIB_dphnw_spectre"
"D1n" "PRIMLIB_ddnw_spectre"
"R0<10>n R0<11>n R0<12>n R0<13>n R0<14>n R0<15>n R0<16>n R0<17>n R0<18>n R0<19>n R0<1>n R0<20>n R0<21>n R0<22>n R0<23>n R0<24>n R0<25>n R0<26>n R0<27>n R0<28>n R0<29>n R0<2>n R0<30>n R0<31>n R0<32>n R0<33>n R0<34>n R0<35>n R0<36>n R0<37>n R0<38>n R0<39>n R0<3>n R0<40>n R0<41>n R0<42>n R0<43>n R0<44>n R0<45>n R0<46>n R0<47>n R0<48>n R0<49>n R0<4>n R0<50>n R0<5>n R0<6>n R0<7>n R0<8>n R0<9>n" "PRIMLIB_rdp_io_spectre"
"MP<10>n MP<11>n MP<12>n MP<13>n MP<14>n MP<15>n MP<16>n MP<17>n MP<18>n MP<19>n MP<1>n MP<20>n MP<21>n MP<22>n MP<23>n MP<24>n MP<25>n MP<26>n MP<27>n MP<28>n MP<29>n MP<2>n MP<30>n MP<31>n MP<32>n MP<33>n MP<34>n MP<35>n MP<36>n MP<37>n MP<38>n MP<39>n MP<3>n MP<40>n MP<41>n MP<42>n MP<43>n MP<44>n MP<45>n MP<46>n MP<47>n MP<48>n MP<49>n MP<4>n MP<50>n MP<5>n MP<6>n MP<7>n MP<8>n MP<9>n" "HV_CELLS_ioh_pmbsab_15_10_schematic"
