HEADER
"PSFversion" "1.00"
"Av" "(FUNCTION or(mappedRoot(\".1@index\") mappedRoot(\".A\")))v"
"Av" ".Av"
"Av" ".\\1 v"
"Guardv" "(FUNCTION or(mappedRoot(\".2@index\") mappedRoot(\".Guard\")))v"
"Guardv" ".Guardv"
"Guardv" ".\\2 v"
"Kv" "(FUNCTION or(mappedRoot(\".3@index\") mappedRoot(\".K\")))v"
"Kv" ".Kv"
"Kv" ".\\3 v"
"D0n D1n" "PRIMLIB_dnw3_spectre"
