HEADER
"PSFversion" "1.00"
"INv" "(FUNCTION or(mappedRoot(\".2@index\") mappedRoot(\".IN\")))v"
"INv" ".INv"
"INv" ".\\2 v"
"OUTv" "(FUNCTION or(mappedRoot(\".3@index\") mappedRoot(\".OUT\")))v"
"OUTv" ".OUTv"
"OUTv" ".\\3 v"
"VDDHVv" "(FUNCTION or(mappedRoot(\".4@index\") mappedRoot(\".VDDHV\")))v"
"VDDHVv" ".VDDHVv"
"VDDHVv" ".\\4 v"
"GNDHVv" "(FUNCTION or(mappedRoot(\".1@index\") mappedRoot(\".GNDHV\")))v"
"GNDHVv" ".GNDHVv"
"GNDHVv" ".\\1 v"
"VSUBv" "(FUNCTION or(mappedRoot(\".5@index\") mappedRoot(\".VSUB\")))v"
"VSUBv" ".VSUBv"
"VSUBv" ".\\5 v"
"M0n" "PRIMLIB_nedia_spectre"
"R0n" "PRIMLIB_rpp1k1_3_spectre"
