HEADER
"PSFversion" "1.00"
"POv" ".POv"
"PIv" ".PIv"
"PADv" ".PADv"
"Yv" ".Yv"
"GNDOIv" ".GNDOIv"
"PSUBv" ".PSUBv"
"VDDOIv" ".VDDOIv"
"VDDRIv" ".VDDRIv"
"GNDRIv" ".GNDRIv"
"GNDIv" ".GNDIv"
"VDD3Iv" ".VDD3Iv"
