HEADER
"PSFversion" "1.00"
"VDDRIv" ".VDDRIv"
"VDDOIv" ".VDDOIv"
"GNDOIv" ".GNDOIv"
"GNDIv" ".GNDIv"
"VDD3Iv" ".VDD3Iv"
"PSUBv" ".PSUBv"
"GNDRIv" ".GNDRIv"
"ENv" ".ENv"
"Av" ".Av"
"PADv" ".PADv"
