HEADER
"PSFversion" "1.00"
"VDD3Iv" "(FUNCTION or(mappedRoot(\".9@index\") mappedRoot(\".VDD3I\")))v"
"VDD3Iv" ".VDD3Iv"
"VDD3Iv" ".\\9 v"
"GNDOIv" "(FUNCTION or(mappedRoot(\".4@index\") mappedRoot(\".GNDOI\")))v"
"GNDOIv" ".GNDOIv"
"GNDOIv" ".\\4 v"
"VDDOIv" "(FUNCTION or(mappedRoot(\".10@index\") mappedRoot(\".VDDOI\")))v"
"VDDOIv" ".VDDOIv"
"VDDOIv" ".\\10 v"
"VDDRIv" "(FUNCTION or(mappedRoot(\".11@index\") mappedRoot(\".VDDRI\")))v"
"VDDRIv" ".VDDRIv"
"VDDRIv" ".\\11 v"
"GNDIv" "(FUNCTION or(mappedRoot(\".3@index\") mappedRoot(\".GNDI\")))v"
"GNDIv" ".GNDIv"
"GNDIv" ".\\3 v"
"PSUBv" "(FUNCTION or(mappedRoot(\".8@index\") mappedRoot(\".PSUB\")))v"
"PSUBv" ".PSUBv"
"PSUBv" ".\\8 v"
"GNDRIv" "(FUNCTION or(mappedRoot(\".5@index\") mappedRoot(\".GNDRI\")))v"
"GNDRIv" ".GNDRIv"
"GNDRIv" ".\\5 v"
"PADv" "(FUNCTION or(mappedRoot(\".6@index\") mappedRoot(\".PAD\")))v"
"PADv" ".PADv"
"PADv" ".\\6 v"
"PIv" "(FUNCTION or(mappedRoot(\".7@index\") mappedRoot(\".PI\")))v"
"PIv" ".PIv"
"PIv" ".\\7 v"
"Yv" "(FUNCTION or(mappedRoot(\".2@index\") mappedRoot(\".Y\")))v"
"Yv" ".Yv"
"Yv" ".\\2 v"
"POv" "(FUNCTION or(mappedRoot(\".1@index\") mappedRoot(\".PO\")))v"
"POv" ".POv"
"POv" ".\\1 v"
"I1n" "IO_CELLS_JIC3V_jio_esd1_pc_cmos_sch"
"I3n" "IO_CELLS_JIC3V_jio_bufc_pc_cmos_sch"
"I4n" "IO_CELLS_JIC3V_jio_ndtr_pc_cmos_sch"
"I5n" "IO_CELLS_JIC3V_jio_ipdio_pc_cmos_sch"
"I6n" "IO_CELLS_JIC3V_jio_opdio_pc_cmos_sch"
