HEADER
"PSFversion" "1.00"
"__NEXT_FILE__" "BIAS_NMOS_HV"
