HEADER
"PSFversion" "1.00"
"Time Stamp" "Feb 17 09:49:49 2024"
TYPE
"variable" STRUCT(
"value" FLOAT DOUBLE
) PROP( "key" "element" )
VALUE
"IDS" "variable" ( 1e-6 ) PROP( )
"L" "variable" ( 180e-9 ) PROP( )
"NF" "variable" ( 1 ) PROP( )
"VDS" "variable" ( 500e-3 ) PROP( )
"WF" "variable" ( 10e-6 ) PROP( )
"temp" "variable" ( 27 ) PROP( )
END
