HEADER
"PSFversion" "1.00"
"Run Generator" "drlRun rev. 1.0"
"Run Time Stamp" "Feb 17 09:47:12 2024"
"simulator" "spectre"
"date" "Feb 17 09:47:12 2024"
 "externalSweepVariableCount" 0
"#maeTestName" "CHARACTERIZATION:FT:1"
"#maeHistoryName" "Ocean.7"
"#maeCorner" "nom"
 "#maeDesignPoint" 29
"netlistDir" "../netlist"
TYPE
"runObject" STRUCT(
"logName" ARRAY( * ) STRING *
"parent" STRING *
"sweepVariable" ARRAY( * ) STRING *
) PROP( "key" "runObject" )
VALUE
"Run1" "runObject" (
(
"logFile"
"artistLogFile"
)
""
()
)
END
