HEADER
"PSFversion" "1.00"
"Bv" ".Bv"
"Av" ".Av"
"Cv" ".Cv"
"Dv" ".Dv"
"Qv" ".Qv"
