HEADER
"PSFversion" "1.00"
"PSUBv" ".PSUBv"
"VDDRIv" ".VDDRIv"
"GNDORIv" ".GNDORIv"
"VDD3Iv" ".VDD3Iv"
"GNDIv" ".GNDIv"
"VDDOIv" ".VDDOIv"
