HEADER
"PSFversion" "1.00"
"Run Generator" "drlRun rev. 1.0"
"Run Time Stamp" "Feb 18 11:13:00 2024"
"simulator" "spectre"
"date" "Feb 18 11:13:00 2024"
 "externalSweepVariableCount" 0
"#maeTestName" ""
"#maeHistoryName" ""
"#maeCorner" "nom"
 "#maeDesignPoint" -1
"netlistDir" "../netlist"
TYPE
"runObject" STRUCT(
"logName" ARRAY( * ) STRING *
"parent" STRING *
"sweepVariable" ARRAY( * ) STRING *
) PROP( "key" "runObject" )
VALUE
"Run1" "runObject" (
(
"logFile"
"artistLogFile"
)
""
()
)
END
