HEADER
"PSFversion" "1.00"
"Time Stamp" "Feb 18 13:00:04 2024"
TYPE
"variable" STRUCT(
"value" FLOAT DOUBLE
) PROP( "key" "element" )
VALUE
"WF" "variable" ( 100e-6 ) PROP( )
"NF" "variable" ( 8 ) PROP( )
"VDS" "variable" ( 1 ) PROP( )
"VGS" "variable" ( 10.5 ) PROP( )
"temperature" "variable" ( 27 ) PROP( )
"temp" "variable" ( 27 ) PROP( )
END
