HEADER
"PSFversion" "1.00"
"NGv" "(FUNCTION or(mappedRoot(\".1@index\") mappedRoot(\".NG\")))v"
"NGv" ".NGv"
"NGv" ".\\1 v"
"PGv" "(FUNCTION or(mappedRoot(\".2@index\") mappedRoot(\".PG\")))v"
"PGv" ".PGv"
"PGv" ".\\2 v"
"VDDOv" "(FUNCTION or(mappedRoot(\".8@index\") mappedRoot(\".VDDO\")))v"
"VDDOv" ".VDDOv"
"VDDOv" ".\\8 v"
"GNDOv" "(FUNCTION or(mappedRoot(\".6@index\") mappedRoot(\".GNDO\")))v"
"GNDOv" ".GNDOv"
"GNDOv" ".\\6 v"
"GNDv" "(FUNCTION or(mappedRoot(\".5@index\") mappedRoot(\".GND\")))v"
"GNDv" ".GNDv"
"GNDv" ".\\5 v"
"VDDv" "(FUNCTION or(mappedRoot(\".7@index\") mappedRoot(\".VDD\")))v"
"VDDv" ".VDDv"
"VDDv" ".\\7 v"
"ENv" "(FUNCTION or(mappedRoot(\".4@index\") mappedRoot(\".EN\")))v"
"ENv" ".ENv"
"ENv" ".\\4 v"
"Av" "(FUNCTION or(mappedRoot(\".3@index\") mappedRoot(\".A\")))v"
"Av" ".Av"
"Av" ".\\3 v"
"M01n M11n M117n M12n M127n M21n M22n" "PRIMLIB_pe3i_spectre"
"M02n M118n M128n M14n M15n M24n M25n" "PRIMLIB_ne3i_spectre"
