HEADER
"PSFversion" "1.00"
"design" "(\"CHARACTERIZATION\" \"BIAS_NMOS_HV\" \"schematic\" \"\")"
"simulator" "spectre"
"temperature" "27"
"host" ""
"date" "Feb 18 13:41:48 2024"
"title" ""
"analysisList" "()"
END
