HEADER
"PSFversion" "1.00"
"Time Stamp" "Feb 18 13:41:48 2024"
TYPE
"variable" STRUCT(
"value" FLOAT DOUBLE
) PROP( "key" "element" )
VALUE
"NF" "variable" ( 8 ) PROP( )
"WF" "variable" ( 100e-6 ) PROP( )
"VDS" "variable" ( 5.0 ) PROP( )
"IDS" "variable" ( 50e-3 ) PROP( )
"temp" "variable" ( 27 ) PROP( )
END
