HEADER
"PSFversion" "1.00"
"Time Stamp" "Feb  7 11:24:38 2024"
TYPE
"variable" STRUCT(
"value" FLOAT DOUBLE
) PROP( "key" "element" )
VALUE
"temp" "variable" ( 27 ) PROP( )
END
