HEADER
"PSFversion" "1.00"
"design" "(\"CHARACTERIZATION\" \"FT_3\" \"schematic\" \"\")"
"simulator" "spectre"
"temperature" "27"
"host" ""
"date" "Feb 17 09:40:21 2024"
"title" ""
"analysisList" "()"
END
