HEADER
"PSFversion" "1.00"
"D0n" "PRIMLIB_dnw3_spectre"
"D1n" "PRIMLIB_dp3_spectre"
