HEADER
"PSFversion" "1.00"
"gnd!v" "cds_globals.\\gnd! v"
"out<0>v" "out[0]v"
"out<1>v" "out[1]v"
"out<2>v" "out[2]v"
"out<3>v" "out[3]v"
"out<4>v" "out[4]v"
"out<5>v" "out[5]v"
"out<6>v" "out[6]v"
"out<7>v" "out[7]v"
