HEADER
"PSFversion" "1.00"
"Bv" "(FUNCTION or(mappedRoot(\".3@index\") mappedRoot(\".B\")))v"
"Bv" ".Bv"
"Bv" ".\\3 v"
"Cv" "(FUNCTION or(mappedRoot(\".4@index\") mappedRoot(\".C\")))v"
"Cv" ".Cv"
"Cv" ".\\4 v"
"Av" "(FUNCTION or(mappedRoot(\".2@index\") mappedRoot(\".A\")))v"
"Av" ".Av"
"Av" ".\\2 v"
"Qv" "(FUNCTION or(mappedRoot(\".1@index\") mappedRoot(\".Q\")))v"
"Qv" ".Qv"
"Qv" ".\\1 v"
"vdd3iv" ".vdd3iv"
"gnd3iv" ".gnd3iv"
